LAMMPS DATA file

192 atoms
0 bonds
0 angles
0 dihedrals
0 impropers

2 atom types
0 bond types
0 angle types

0.0 12.990503 xlo xhi
0.0 11.250148 ylo yhi
0.0 15.845291 zlo zhi

Masses

1 69.723
2 14.0067

Atoms

1 1 1.678633 0.884262 2.570740 0 0 0
2 1 1.542233 0.959874 8.005358 0 0 0
3 1 1.518850 0.917258 13.240483 0 0 0
4 1 0.068933 3.753612 2.491830 0 0 0
5 1 12.975082 3.813350 8.072859 0 0 0
6 1 0.090748 3.651011 13.283424 0 0 0
7 1 4.929896 0.994817 2.540792 0 0 0
8 1 3.201899 1.896887 5.427487 0 0 0
9 1 4.858838 0.936676 8.066679 0 0 0
10 1 3.315956 1.982951 10.463913 0 0 0
11 1 4.749718 0.860591 13.268529 0 0 0
12 1 3.319723 1.907688 15.788564 0 0 0
13 1 3.287766 3.647861 2.751852 0 0 0
14 1 1.520668 4.788176 5.238136 0 0 0
15 1 3.152665 3.707936 8.043545 0 0 0
16 1 1.696820 4.618523 10.454723 0 0 0
17 1 3.349861 3.810988 13.291505 0 0 0
18 1 1.549377 4.618523 0.041198 0 0 0
19 1 1.522877 6.563899 2.694016 0 0 0
20 1 1.534698 6.534086 8.014865 0 0 0
21 1 1.730205 6.486273 13.274392 0 0 0
22 1 0.014471 9.304885 2.695601 0 0 0
23 1 12.938496 9.404899 7.833436 0 0 0
24 1 12.987736 9.433249 13.236997 0 0 0
25 1 8.053592 0.971979 2.581832 0 0 0
26 1 6.396264 1.910275 5.417980 0 0 0
27 1 8.207660 0.857948 7.976519 0 0 0
28 1 6.537860 1.877425 10.537435 0 0 0
29 1 8.088797 1.014527 13.119901 0 0 0
30 1 6.441081 1.888787 0.034860 0 0 0
31 1 6.482131 3.832025 2.779264 0 0 0
32 1 4.953669 4.737100 5.156533 0 0 0
33 1 6.386911 3.826400 7.869880 0 0 0
34 1 4.976792 4.705037 10.415743 0 0 0
35 1 6.421336 3.670586 13.172348 0 0 0
36 1 4.969517 4.596023 0.131516 0 0 0
37 1 4.984716 6.509786 2.488186 0 0 0
38 1 3.238922 7.519037 5.348102 0 0 0
39 1 4.828180 6.464448 8.041327 0 0 0
40 1 3.333103 7.471561 10.642172 0 0 0
41 1 4.855201 6.566712 13.217983 0 0 0
42 1 3.181504 7.416435 0.030106 0 0 0
43 1 3.277114 9.315460 2.748683 0 0 0
44 1 1.523916 10.398737 5.241147 0 0 0
45 1 3.195664 9.432012 7.842785 0 0 0
46 1 1.630438 10.251698 10.417486 0 0 0
47 1 3.332844 9.288685 13.212279 0 0 0
48 1 1.656159 10.200172 15.733264 0 0 0
49 1 11.239253 0.994434 2.699879 0 0 0
50 1 9.705595 1.913425 5.146709 0 0 0
51 1 11.450479 0.920240 7.790971 0 0 0
52 1 9.638304 1.786411 10.595587 0 0 0
53 1 11.289007 0.920228 13.296892 0 0 0
54 1 9.698450 1.823987 0.095072 0 0 0
55 1 9.666623 3.784775 2.659474 0 0 0
56 1 8.135562 4.645861 5.163980 0 0 0
57 1 9.646748 3.827188 7.909177 0 0 0
58 1 8.049306 4.750825 10.615869 0 0 0
59 1 9.654802 3.669348 13.252367 0 0 0
60 1 8.160244 4.719887 15.740553 0 0 0
61 1 8.202723 6.588199 2.772450 0 0 0
62 1 6.537211 7.443661 5.132607 0 0 0
63 1 7.998772 6.611712 7.835813 0 0 0
64 1 6.403149 7.397535 10.655958 0 0 0
65 1 8.207530 6.501686 13.277403 0 0 0
66 1 6.438613 7.463686 15.785712 0 0 0
67 1 6.382624 9.280022 2.633804 0 0 0
68 1 4.839222 10.293886 5.314194 0 0 0
69 1 6.537731 9.405574 7.866553 0 0 0
70 1 4.934962 10.356661 10.585446 0 0 0
71 1 6.594629 9.478025 13.313055 0 0 0
72 1 4.824803 10.349461 0.123593 0 0 0
73 1 0.048065 1.987339 5.276165 0 0 0
74 1 12.931526 1.918600 10.714902 0 0 0
75 1 12.915288 1.856049 15.732631 0 0 0
76 1 11.301608 4.663636 5.225618 0 0 0
77 1 11.478019 4.676912 10.566432 0 0 0
78 1 11.366950 4.757350 0.091903 0 0 0
79 1 11.267443 6.589212 2.721904 0 0 0
80 1 9.687018 7.448161 5.265549 0 0 0
81 1 11.333305 6.557936 7.897610 0 0 0
82 1 9.679224 7.419360 10.483878 0 0 0
83 1 11.327329 6.506861 13.046062 0 0 0
84 1 9.730017 7.591150 0.044367 0 0 0
85 1 9.650255 9.320748 2.727767 0 0 0
86 1 8.178171 10.385349 5.414494 0 0 0
87 1 9.662596 9.381161 7.847697 0 0 0
88 1 8.095292 10.254060 10.512875 0 0 0
89 1 9.655711 9.263147 13.169338 0 0 0
90 1 8.061776 10.239997 0.022183 0 0 0
91 1 0.057158 7.549862 5.279017 0 0 0
92 1 12.945296 7.489899 10.493702 0 0 0
93 1 0.048065 7.595650 15.773828 0 0 0
94 1 11.360455 10.288261 5.218963 0 0 0
95 1 11.340709 10.397612 10.701592 0 0 0
96 1 11.237954 10.335511 0.085565 0 0 0
97 2 1.659797 0.851332 4.693692 0 0 0
98 2 1.519369 0.956589 10.018977 0 0 0
99 2 1.553794 0.869108 15.044153 0 0 0
100 2 0.085102 3.643923 4.584993 0 0 0
101 2 12.906018 3.750912 9.907585 0 0 0
102 2 0.094802 3.766100 15.086301 0 0 0
103 2 4.977571 0.974330 4.627934 0 0 0
104 2 3.331285 1.827249 2.106948 0 0 0
105 2 4.879623 0.845842 9.903624 0 0 0
106 2 3.201380 1.884737 7.412585 0 0 0
107 2 4.837014 0.830958 15.266462 0 0 0
108 2 3.202159 1.912188 12.548995 0 0 0
109 2 3.340508 3.806038 4.594659 0 0 0
110 2 1.627450 4.706387 1.988742 0 0 0
111 2 3.308421 3.801425 9.811879 0 0 0
112 2 1.612121 4.691762 7.156684 0 0 0
113 2 3.320892 3.674748 15.188979 0 0 0
114 2 1.561199 4.714937 12.536002 0 0 0
115 2 1.560289 6.570312 4.497686 0 0 0
116 2 1.639791 6.641863 9.980949 0 0 0
117 2 1.633816 6.601249 15.304808 0 0 0
118 2 0.013493 9.467562 4.645047 0 0 0
119 2 0.093102 9.364511 9.801263 0 0 0
120 2 12.922230 9.400286 15.169489 0 0 0
121 2 8.146864 0.878254 4.764362 0 0 0
122 2 6.548123 1.914550 1.952457 0 0 0
123 2 8.157387 0.926090 10.064136 0 0 0
124 2 6.389639 1.867862 7.329239 0 0 0
125 2 8.233901 0.967096 15.227641 0 0 0
126 2 6.532534 1.796649 12.468818 0 0 0
127 2 6.508242 3.691849 4.628251 0 0 0
128 2 4.949642 4.724387 1.839321 0 0 0
129 2 6.419387 3.728299 10.041319 0 0 0
130 2 4.899498 4.624148 7.220065 0 0 0
131 2 6.434976 3.724249 15.310354 0 0 0
132 2 4.885728 4.648111 12.596689 0 0 0
133 2 4.900148 6.470073 4.584835 0 0 0
134 2 3.361942 7.595200 1.910308 0 0 0
135 2 4.810253 6.625662 9.877637 0 0 0
136 2 3.348042 7.489336 7.266967 0 0 0
137 2 4.838443 6.535999 15.177253 0 0 0
138 2 3.304264 7.551887 12.497814 0 0 0
139 2 3.238403 9.347636 4.488812 0 0 0
140 2 1.749171 10.334274 1.970362 0 0 0
141 2 3.370256 9.417612 9.905050 0 0 0
142 2 1.586790 10.297261 7.174748 0 0 0
143 2 3.259317 9.478025 15.091372 0 0 0
144 2 1.693962 10.388499 12.679085 0 0 0
145 2 11.400596 0.958569 4.713340 0 0 0
146 2 9.683901 1.764361 1.912685 0 0 0
147 2 11.375524 0.875667 10.039576 0 0 0
148 2 9.642201 1.822412 7.261580 0 0 0
149 2 11.408520 1.013098 15.233187 0 0 0
150 2 9.822639 1.891375 12.547093 0 0 0
151 2 9.821210 3.736737 4.484059 0 0 0
152 2 8.245722 4.743625 2.011084 0 0 0
153 2 9.699749 3.771050 10.036090 0 0 0
154 2 8.208179 4.770513 7.142265 0 0 0
155 2 9.817573 3.728862 15.129400 0 0 0
156 2 7.996044 4.734962 12.658644 0 0 0
157 2 8.002150 6.505398 4.769749 0 0 0
158 2 6.393926 7.603188 1.937087 0 0 0
159 2 8.217922 6.512148 9.976670 0 0 0
160 2 6.378207 7.411710 7.381687 0 0 0
161 2 8.099449 6.576612 15.264244 0 0 0
162 2 6.615024 7.400910 12.429046 0 0 0
163 2 6.399382 9.443262 4.519394 0 0 0
164 2 4.878064 10.359586 2.141491 0 0 0
165 2 6.523961 9.328173 9.924856 0 0 0
166 2 4.881961 10.402787 7.131965 0 0 0
167 2 6.621000 9.466437 15.329685 0 0 0
168 2 4.916126 10.363637 12.420806 0 0 0
169 2 12.895802 1.944926 2.095540 0 0 0
170 2 12.887359 1.932550 7.211192 0 0 0
171 2 12.922433 1.951451 12.524751 0 0 0
172 2 11.408260 4.583085 2.062423 0 0 0
173 2 11.495946 4.661499 7.277108 0 0 0
174 2 11.440476 4.611548 12.676866 0 0 0
175 2 11.317456 6.602937 4.614149 0 0 0
176 2 9.785486 7.541199 1.904445 0 0 0
177 2 11.377992 6.487060 10.037675 0 0 0
178 2 9.761714 7.577762 7.418607 0 0 0
179 2 11.443724 6.574812 15.308769 0 0 0
180 2 9.682472 7.599363 12.705071 0 0 0
181 2 9.851348 9.271022 4.654237 0 0 0
182 2 8.098540 10.210410 2.120892 0 0 0
183 2 9.808220 9.276197 9.979206 0 0 0
184 2 8.063595 10.417187 7.156842 0 0 0
185 2 9.768079 9.367323 15.162517 0 0 0
186 2 8.217922 10.250685 12.563256 0 0 0
187 2 0.116915 7.534562 1.838529 0 0 0
188 2 12.961664 7.584287 7.232583 0 0 0
189 2 0.063653 7.554362 12.464064 0 0 0
190 2 11.476850 10.238872 2.090786 0 0 0
191 2 11.343567 10.373424 7.217213 0 0 0
192 2 11.468406 10.392662 12.433007 0 0 0
