LAMMPS DATA file

64 atoms

1 atom types

0.000000 10.862000 xlo xhi
0.000000 10.862000 ylo yhi
0.000000 10.862000 zlo zhi

Masses

1 28.0855

Atoms

1 1 6.800670 1.380080 1.375190
2 1 9.453460 4.090940 1.355220
3 1 9.477660 1.396870 4.088350
4 1 1.371140 1.343720 1.359210
5 1 4.041360 4.055220 1.319450
6 1 6.838570 6.763470 1.307610
7 1 9.570890 9.485830 1.339890
8 1 4.056370 1.353030 4.114380
9 1 6.797080 4.071720 4.050450
10 1 9.515080 6.783250 4.084480
11 1 6.743870 1.363810 6.818480
12 1 9.514860 4.090220 6.817120
13 1 9.461100 1.367080 9.519950
14 1 1.345740 6.775630 1.373260
15 1 4.102440 9.510220 1.360420
16 1 1.368050 4.095480 4.024060
17 1 4.062790 6.805610 4.114400
18 1 6.763770 9.518310 4.068950
19 1 1.363270 1.363440 6.775660
20 1 4.094540 4.073290 6.756610
21 1 6.845510 6.754670 6.787370
22 1 9.482870 9.451820 6.817360
23 1 4.070210 1.389550 9.490030
24 1 6.753350 4.073620 9.521100
25 1 9.502660 6.830050 9.508680
26 1 1.348600 9.508970 4.077170
27 1 1.372060 6.744640 6.780400
28 1 4.068820 9.517660 6.806150
29 1 1.338380 4.055430 9.474810
30 1 4.105470 6.792460 9.470740
31 1 6.816010 9.489400 9.501200
32 1 1.356760 9.499300 9.539910
33 1 5.485180 0.014666 0.011504
34 1 8.144310 2.721000 0.014414
35 1 8.161060 -0.007964 2.665810
36 1 0.011133 0.031121 -0.024634
37 1 2.680850 2.703140 -0.014692
38 1 5.415100 5.410970 0.016000
39 1 8.189600 8.219970 -0.027452
40 1 2.731900 -0.015848 2.784680
41 1 5.401130 2.688300 2.732870
42 1 8.145130 5.464840 2.734140
43 1 5.385540 0.022091 5.442730
44 1 8.138810 2.709980 5.441500
45 1 8.131020 -0.017985 8.140000
46 1 0.013188 5.440000 -0.004505
47 1 2.732010 8.118530 0.073964
48 1 0.005236 2.741440 2.695490
49 1 2.741240 5.439290 2.703380
50 1 5.427340 8.113540 2.694710
51 1 -0.025991 -0.032115 5.451440
52 1 2.725190 2.714240 5.434380
53 1 5.428940 5.432530 5.415240
54 1 8.103930 8.140810 5.387620
55 1 2.687480 -0.000893 8.180290
56 1 5.420640 2.710530 8.161600
57 1 8.168250 5.417180 8.145120
58 1 0.018770 8.181990 2.726040
59 1 0.001010 5.417350 5.400860
60 1 2.638420 8.170010 5.431510
61 1 0.025923 2.668630 8.135620
62 1 2.749320 5.426450 8.156660
63 1 5.446440 8.171500 8.109140
64 1 0.004538 8.125930 8.122540
