LAMMPS DATA file

64 atoms

1 atom types

0.000000 10.862000 xlo xhi
0.000000 10.862000 ylo yhi
0.000000 10.862000 zlo zhi

Masses

1 28.0855

Atoms

1 1 6.762600 1.336300 1.362180
2 1 9.516850 4.055690 1.322840
3 1 9.478380 1.363170 4.083140
4 1 1.399050 1.336360 1.403750
5 1 4.079550 4.106210 1.381110
6 1 6.834900 6.870880 1.345350
7 1 9.529260 9.583800 1.382480
8 1 4.084530 1.355800 4.089050
9 1 6.783870 4.112050 4.024990
10 1 9.524580 6.788050 4.038960
11 1 6.776000 1.343440 6.769180
12 1 9.500450 4.012940 6.777840
13 1 9.519170 1.339690 9.498730
14 1 1.384970 6.809230 1.373670
15 1 4.060180 9.522760 1.380570
16 1 1.325100 4.073970 4.078670
17 1 4.077130 6.803860 4.029860
18 1 6.763310 9.528660 4.114550
19 1 1.286210 1.333040 6.802860
20 1 4.061470 4.076040 6.783740
21 1 6.761160 6.778460 6.776580
22 1 9.476130 9.507650 6.748600
23 1 4.051100 1.327600 9.540490
24 1 6.787300 4.079080 9.519090
25 1 9.535640 6.802480 9.483820
26 1 1.337750 9.511500 4.131580
27 1 1.361580 6.742830 6.803240
28 1 4.079660 9.468030 6.806950
29 1 1.389900 4.047530 9.461240
30 1 4.099620 6.785370 9.528060
31 1 6.791130 9.519810 9.475000
32 1 1.357690 9.473870 9.479960
33 1 5.397530 -0.022667 -0.038317
34 1 8.103890 2.701160 0.005131
35 1 8.162860 0.018901 2.762230
36 1 0.017850 0.001473 0.024055
37 1 2.730040 2.729290 0.026570
38 1 5.449090 5.486480 0.013538
39 1 8.196640 8.213360 0.006122
40 1 2.740840 -0.012492 2.759990
41 1 5.400940 2.714500 2.721830
42 1 8.200600 5.438570 2.647020
43 1 5.401860 -0.012801 5.461480
44 1 8.075050 2.770540 5.450950
45 1 8.143540 -0.001172 8.137330
46 1 0.018733 5.408960 -0.024718
47 1 2.737820 8.166190 -0.071349
48 1 -0.040293 2.686950 2.684800
49 1 2.702930 5.446920 2.724030
50 1 5.472120 8.170290 2.713080
51 1 -0.050460 0.015074 5.410220
52 1 2.676730 2.715110 5.415930
53 1 5.462690 5.438820 5.393790
54 1 8.144140 8.102470 5.433860
55 1 2.711490 -0.004471 8.127000
56 1 5.415490 2.721480 8.131340
57 1 8.147890 5.426300 8.169990
58 1 0.017420 8.133640 2.737620
59 1 -0.031973 5.412360 5.445570
60 1 2.734130 8.144250 5.487780
61 1 -0.038516 2.697740 8.157310
62 1 2.734390 5.395930 8.144700
63 1 5.479190 8.094330 8.160760
64 1 0.045158 8.142370 8.118240
