LAMMPS (29 Oct 2020)
OMP_NUM_THREADS environment is not set. Defaulting to 1 thread. (src/comm.cpp:94)
  using 1 OpenMP thread(s) per MPI task
units metal
boundary p p p
atom_style atomic
atom_modify map array
read_data data/1/DATA
Reading data file ...
  orthogonal box = (0.0000000 0.0000000 0.0000000) to (12.990503 11.250148 15.845291)
  1 by 1 by 1 MPI processor grid
  reading atoms ...
  192 atoms
  read_data CPU = 0.002 seconds
pair_style zero 3.5
pair_coeff * *
compute PE all pe
compute S all pressure thermo_temp
compute SNA all sna/atom 3.5 0.99363 6 0.5 0.5 1.0 0.5 rmin0 0.0 bzeroflag 0 quadraticflag 0 switchflag 1
compute SNAD all snad/atom 3.5 0.99363 6 0.5 0.5 1.0 0.5 rmin0 0.0 bzeroflag 0 quadraticflag 0 switchflag 1
compute SNAV all snav/atom 3.5 0.99363 6 0.5 0.5 1.0 0.5 rmin0 0.0 bzeroflag 0 quadraticflag 0 switchflag 1
thermo_style custom pe
dump 2 all custom 100 dump.forces fx fy fz
run 0
WARNING: No fixes defined, atoms won't move (src/verlet.cpp:54)
Neighbor list info ...
  update every 1 steps, delay 10 steps, check yes
  max neighbors/atom: 2000, page size: 100000
  master list distance cutoff = 5.5
  ghost atom cutoff = 5.5
  binsize = 2.75, bins = 5 5 6
  4 neighbor lists, perpetual/occasional/extra = 1 3 0
  (1) pair zero, perpetual
      attributes: half, newton on
      pair build: half/bin/atomonly/newton
      stencil: half/bin/3d/newton
      bin: standard
  (2) compute sna/atom, occasional
      attributes: full, newton on
      pair build: full/bin/atomonly
      stencil: full/bin/3d
      bin: standard
  (3) compute snad/atom, occasional
      attributes: full, newton on
      pair build: full/bin/atomonly
      stencil: full/bin/3d
      bin: standard
  (4) compute snav/atom, occasional
      attributes: full, newton on
      pair build: full/bin/atomonly
      stencil: full/bin/3d
      bin: standard
Per MPI rank memory allocation (min/avg/max) = 8.889 | 8.889 | 8.889 Mbytes
PotEng 
           0 
Loop time of 2.86102e-06 on 1 procs for 0 steps with 192 atoms

0.0% CPU use with 1 MPI tasks x 1 OpenMP threads

MPI task timing breakdown:
Section |  min time  |  avg time  |  max time  |%varavg| %total
---------------------------------------------------------------
Pair    | 0          | 0          | 0          |   0.0 |  0.00
Neigh   | 0          | 0          | 0          |   0.0 |  0.00
Comm    | 0          | 0          | 0          |   0.0 |  0.00
Output  | 0          | 0          | 0          |   0.0 |  0.00
Modify  | 0          | 0          | 0          |   0.0 |  0.00
Other   |            | 2.861e-06  |            |       |100.00

Nlocal:        192.000 ave         192 max         192 min
Histogram: 1 0 0 0 0 0 0 0 0 0
Nghost:        1068.00 ave        1068 max        1068 min
Histogram: 1 0 0 0 0 0 0 0 0 0
Neighs:        4704.00 ave        4704 max        4704 min
Histogram: 1 0 0 0 0 0 0 0 0 0
FullNghs:      0.00000 ave           0 max           0 min
Histogram: 1 0 0 0 0 0 0 0 0 0

Total # of neighbors = 4704
Ave neighs/atom = 24.500000
Neighbor list builds = 0
Dangerous builds = 0
clear
OMP_NUM_THREADS environment is not set. Defaulting to 1 thread. (src/comm.cpp:94)
  using 1 OpenMP thread(s) per MPI task
units metal
boundary p p p
atom_style atomic
atom_modify map array
read_data data/2/DATA
Reading data file ...
  orthogonal box = (0.0000000 0.0000000 0.0000000) to (12.990503 11.250148 15.845291)
  1 by 1 by 1 MPI processor grid
  reading atoms ...
  192 atoms
  read_data CPU = 0.000 seconds
pair_style zero 3.5
pair_coeff * *
compute PE all pe
compute S all pressure thermo_temp
compute SNA all sna/atom 3.5 0.99363 6 0.5 0.5 1.0 0.5 rmin0 0.0 bzeroflag 0 quadraticflag 0 switchflag 1
compute SNAD all snad/atom 3.5 0.99363 6 0.5 0.5 1.0 0.5 rmin0 0.0 bzeroflag 0 quadraticflag 0 switchflag 1
compute SNAV all snav/atom 3.5 0.99363 6 0.5 0.5 1.0 0.5 rmin0 0.0 bzeroflag 0 quadraticflag 0 switchflag 1
thermo_style custom pe
dump 2 all custom 100 dump.forces fx fy fz
run 0
WARNING: No fixes defined, atoms won't move (src/verlet.cpp:54)
Neighbor list info ...
  update every 1 steps, delay 10 steps, check yes
  max neighbors/atom: 2000, page size: 100000
  master list distance cutoff = 5.5
  ghost atom cutoff = 5.5
  binsize = 2.75, bins = 5 5 6
  4 neighbor lists, perpetual/occasional/extra = 1 3 0
  (1) pair zero, perpetual
      attributes: half, newton on
      pair build: half/bin/atomonly/newton
      stencil: half/bin/3d/newton
      bin: standard
  (2) compute sna/atom, occasional
      attributes: full, newton on
      pair build: full/bin/atomonly
      stencil: full/bin/3d
      bin: standard
  (3) compute snad/atom, occasional
      attributes: full, newton on
      pair build: full/bin/atomonly
      stencil: full/bin/3d
      bin: standard
  (4) compute snav/atom, occasional
      attributes: full, newton on
      pair build: full/bin/atomonly
      stencil: full/bin/3d
      bin: standard
Per MPI rank memory allocation (min/avg/max) = 8.641 | 8.641 | 8.641 Mbytes
PotEng 
           0 
Loop time of 9.53674e-07 on 1 procs for 0 steps with 192 atoms

0.0% CPU use with 1 MPI tasks x 1 OpenMP threads

MPI task timing breakdown:
Section |  min time  |  avg time  |  max time  |%varavg| %total
---------------------------------------------------------------
Pair    | 0          | 0          | 0          |   0.0 |  0.00
Neigh   | 0          | 0          | 0          |   0.0 |  0.00
Comm    | 0          | 0          | 0          |   0.0 |  0.00
Output  | 0          | 0          | 0          |   0.0 |  0.00
Modify  | 0          | 0          | 0          |   0.0 |  0.00
Other   |            | 9.537e-07  |            |       |100.00

Nlocal:        192.000 ave         192 max         192 min
Histogram: 1 0 0 0 0 0 0 0 0 0
Nghost:        1068.00 ave        1068 max        1068 min
Histogram: 1 0 0 0 0 0 0 0 0 0
Neighs:        4923.00 ave        4923 max        4923 min
Histogram: 1 0 0 0 0 0 0 0 0 0
FullNghs:      0.00000 ave           0 max           0 min
Histogram: 1 0 0 0 0 0 0 0 0 0

Total # of neighbors = 4923
Ave neighs/atom = 25.640625
Neighbor list builds = 0
Dangerous builds = 0
clear
OMP_NUM_THREADS environment is not set. Defaulting to 1 thread. (src/comm.cpp:94)
  using 1 OpenMP thread(s) per MPI task
units metal
boundary p p p
atom_style atomic
atom_modify map array
read_data data/3/DATA
Reading data file ...
  orthogonal box = (0.0000000 0.0000000 0.0000000) to (12.990503 11.250148 15.845291)
  1 by 1 by 1 MPI processor grid
  reading atoms ...
  192 atoms
  read_data CPU = 0.000 seconds
pair_style zero 3.5
pair_coeff * *
compute PE all pe
compute S all pressure thermo_temp
compute SNA all sna/atom 3.5 0.99363 6 0.5 0.5 1.0 0.5 rmin0 0.0 bzeroflag 0 quadraticflag 0 switchflag 1
compute SNAD all snad/atom 3.5 0.99363 6 0.5 0.5 1.0 0.5 rmin0 0.0 bzeroflag 0 quadraticflag 0 switchflag 1
compute SNAV all snav/atom 3.5 0.99363 6 0.5 0.5 1.0 0.5 rmin0 0.0 bzeroflag 0 quadraticflag 0 switchflag 1
thermo_style custom pe
dump 2 all custom 100 dump.forces fx fy fz
run 0
WARNING: No fixes defined, atoms won't move (src/verlet.cpp:54)
Neighbor list info ...
  update every 1 steps, delay 10 steps, check yes
  max neighbors/atom: 2000, page size: 100000
  master list distance cutoff = 5.5
  ghost atom cutoff = 5.5
  binsize = 2.75, bins = 5 5 6
  4 neighbor lists, perpetual/occasional/extra = 1 3 0
  (1) pair zero, perpetual
      attributes: half, newton on
      pair build: half/bin/atomonly/newton
      stencil: half/bin/3d/newton
      bin: standard
  (2) compute sna/atom, occasional
      attributes: full, newton on
      pair build: full/bin/atomonly
      stencil: full/bin/3d
      bin: standard
  (3) compute snad/atom, occasional
      attributes: full, newton on
      pair build: full/bin/atomonly
      stencil: full/bin/3d
      bin: standard
  (4) compute snav/atom, occasional
      attributes: full, newton on
      pair build: full/bin/atomonly
      stencil: full/bin/3d
      bin: standard
Per MPI rank memory allocation (min/avg/max) = 8.773 | 8.773 | 8.773 Mbytes
PotEng 
           0 
Loop time of 9.53674e-07 on 1 procs for 0 steps with 192 atoms

0.0% CPU use with 1 MPI tasks x 1 OpenMP threads

MPI task timing breakdown:
Section |  min time  |  avg time  |  max time  |%varavg| %total
---------------------------------------------------------------
Pair    | 0          | 0          | 0          |   0.0 |  0.00
Neigh   | 0          | 0          | 0          |   0.0 |  0.00
Comm    | 0          | 0          | 0          |   0.0 |  0.00
Output  | 0          | 0          | 0          |   0.0 |  0.00
Modify  | 0          | 0          | 0          |   0.0 |  0.00
Other   |            | 9.537e-07  |            |       |100.00

Nlocal:        192.000 ave         192 max         192 min
Histogram: 1 0 0 0 0 0 0 0 0 0
Nghost:        1068.00 ave        1068 max        1068 min
Histogram: 1 0 0 0 0 0 0 0 0 0
Neighs:        4899.00 ave        4899 max        4899 min
Histogram: 1 0 0 0 0 0 0 0 0 0
FullNghs:      0.00000 ave           0 max           0 min
Histogram: 1 0 0 0 0 0 0 0 0 0

Total # of neighbors = 4899
Ave neighs/atom = 25.515625
Neighbor list builds = 0
Dangerous builds = 0
clear
OMP_NUM_THREADS environment is not set. Defaulting to 1 thread. (src/comm.cpp:94)
  using 1 OpenMP thread(s) per MPI task
units metal
boundary p p p
atom_style atomic
atom_modify map array
read_data data/4/DATA
Reading data file ...
  orthogonal box = (0.0000000 0.0000000 0.0000000) to (12.990503 11.250148 15.845291)
  1 by 1 by 1 MPI processor grid
  reading atoms ...
  192 atoms
  read_data CPU = 0.000 seconds
pair_style zero 3.5
pair_coeff * *
compute PE all pe
compute S all pressure thermo_temp
compute SNA all sna/atom 3.5 0.99363 6 0.5 0.5 1.0 0.5 rmin0 0.0 bzeroflag 0 quadraticflag 0 switchflag 1
compute SNAD all snad/atom 3.5 0.99363 6 0.5 0.5 1.0 0.5 rmin0 0.0 bzeroflag 0 quadraticflag 0 switchflag 1
compute SNAV all snav/atom 3.5 0.99363 6 0.5 0.5 1.0 0.5 rmin0 0.0 bzeroflag 0 quadraticflag 0 switchflag 1
thermo_style custom pe
dump 2 all custom 100 dump.forces fx fy fz
run 0
WARNING: No fixes defined, atoms won't move (src/verlet.cpp:54)
Neighbor list info ...
  update every 1 steps, delay 10 steps, check yes
  max neighbors/atom: 2000, page size: 100000
  master list distance cutoff = 5.5
  ghost atom cutoff = 5.5
  binsize = 2.75, bins = 5 5 6
  4 neighbor lists, perpetual/occasional/extra = 1 3 0
  (1) pair zero, perpetual
      attributes: half, newton on
      pair build: half/bin/atomonly/newton
      stencil: half/bin/3d/newton
      bin: standard
  (2) compute sna/atom, occasional
      attributes: full, newton on
      pair build: full/bin/atomonly
      stencil: full/bin/3d
      bin: standard
  (3) compute snad/atom, occasional
      attributes: full, newton on
      pair build: full/bin/atomonly
      stencil: full/bin/3d
      bin: standard
  (4) compute snav/atom, occasional
      attributes: full, newton on
      pair build: full/bin/atomonly
      stencil: full/bin/3d
      bin: standard
Per MPI rank memory allocation (min/avg/max) = 8.658 | 8.658 | 8.658 Mbytes
PotEng 
           0 
Loop time of 0 on 1 procs for 0 steps with 192 atoms

0.0% CPU use with 1 MPI tasks x 1 OpenMP threads

MPI task timing breakdown:
Section |  min time  |  avg time  |  max time  |%varavg| %total
---------------------------------------------------------------
Pair    | 0          | 0          | 0          |   0.0 |  0.00
Neigh   | 0          | 0          | 0          |   0.0 |  0.00
Comm    | 0          | 0          | 0          |   0.0 |  0.00
Output  | 0          | 0          | 0          |   0.0 |  0.00
Modify  | 0          | 0          | 0          |   0.0 |  0.00
Other   |            | 0          |            |       |  0.00

Nlocal:        192.000 ave         192 max         192 min
Histogram: 1 0 0 0 0 0 0 0 0 0
Nghost:        1068.00 ave        1068 max        1068 min
Histogram: 1 0 0 0 0 0 0 0 0 0
Neighs:        4902.00 ave        4902 max        4902 min
Histogram: 1 0 0 0 0 0 0 0 0 0
FullNghs:      0.00000 ave           0 max           0 min
Histogram: 1 0 0 0 0 0 0 0 0 0

Total # of neighbors = 4902
Ave neighs/atom = 25.531250
Neighbor list builds = 0
Dangerous builds = 0
clear
OMP_NUM_THREADS environment is not set. Defaulting to 1 thread. (src/comm.cpp:94)
  using 1 OpenMP thread(s) per MPI task
units metal
boundary p p p
atom_style atomic
atom_modify map array
read_data data/5/DATA
Reading data file ...
  orthogonal box = (0.0000000 0.0000000 0.0000000) to (12.990503 11.250148 15.845291)
  1 by 1 by 1 MPI processor grid
  reading atoms ...
  192 atoms
  read_data CPU = 0.000 seconds
pair_style zero 3.5
pair_coeff * *
compute PE all pe
compute S all pressure thermo_temp
compute SNA all sna/atom 3.5 0.99363 6 0.5 0.5 1.0 0.5 rmin0 0.0 bzeroflag 0 quadraticflag 0 switchflag 1
compute SNAD all snad/atom 3.5 0.99363 6 0.5 0.5 1.0 0.5 rmin0 0.0 bzeroflag 0 quadraticflag 0 switchflag 1
compute SNAV all snav/atom 3.5 0.99363 6 0.5 0.5 1.0 0.5 rmin0 0.0 bzeroflag 0 quadraticflag 0 switchflag 1
thermo_style custom pe
dump 2 all custom 100 dump.forces fx fy fz
run 0
WARNING: No fixes defined, atoms won't move (src/verlet.cpp:54)
Neighbor list info ...
  update every 1 steps, delay 10 steps, check yes
  max neighbors/atom: 2000, page size: 100000
  master list distance cutoff = 5.5
  ghost atom cutoff = 5.5
  binsize = 2.75, bins = 5 5 6
  4 neighbor lists, perpetual/occasional/extra = 1 3 0
  (1) pair zero, perpetual
      attributes: half, newton on
      pair build: half/bin/atomonly/newton
      stencil: half/bin/3d/newton
      bin: standard
  (2) compute sna/atom, occasional
      attributes: full, newton on
      pair build: full/bin/atomonly
      stencil: full/bin/3d
      bin: standard
  (3) compute snad/atom, occasional
      attributes: full, newton on
      pair build: full/bin/atomonly
      stencil: full/bin/3d
      bin: standard
  (4) compute snav/atom, occasional
      attributes: full, newton on
      pair build: full/bin/atomonly
      stencil: full/bin/3d
      bin: standard
Per MPI rank memory allocation (min/avg/max) = 8.658 | 8.658 | 8.658 Mbytes
PotEng 
           0 
Loop time of 9.53674e-07 on 1 procs for 0 steps with 192 atoms

0.0% CPU use with 1 MPI tasks x 1 OpenMP threads

MPI task timing breakdown:
Section |  min time  |  avg time  |  max time  |%varavg| %total
---------------------------------------------------------------
Pair    | 0          | 0          | 0          |   0.0 |  0.00
Neigh   | 0          | 0          | 0          |   0.0 |  0.00
Comm    | 0          | 0          | 0          |   0.0 |  0.00
Output  | 0          | 0          | 0          |   0.0 |  0.00
Modify  | 0          | 0          | 0          |   0.0 |  0.00
Other   |            | 9.537e-07  |            |       |100.00

Nlocal:        192.000 ave         192 max         192 min
Histogram: 1 0 0 0 0 0 0 0 0 0
Nghost:        1068.00 ave        1068 max        1068 min
Histogram: 1 0 0 0 0 0 0 0 0 0
Neighs:        4885.00 ave        4885 max        4885 min
Histogram: 1 0 0 0 0 0 0 0 0 0
FullNghs:      0.00000 ave           0 max           0 min
Histogram: 1 0 0 0 0 0 0 0 0 0

Total # of neighbors = 4885
Ave neighs/atom = 25.442708
Neighbor list builds = 0
Dangerous builds = 0
clear
OMP_NUM_THREADS environment is not set. Defaulting to 1 thread. (src/comm.cpp:94)
  using 1 OpenMP thread(s) per MPI task
units metal
boundary p p p
atom_style atomic
atom_modify map array
read_data data/6/DATA
Reading data file ...
  orthogonal box = (0.0000000 0.0000000 0.0000000) to (12.990503 11.250148 15.845291)
  1 by 1 by 1 MPI processor grid
  reading atoms ...
  192 atoms
  read_data CPU = 0.000 seconds
pair_style zero 3.5
pair_coeff * *
compute PE all pe
compute S all pressure thermo_temp
compute SNA all sna/atom 3.5 0.99363 6 0.5 0.5 1.0 0.5 rmin0 0.0 bzeroflag 0 quadraticflag 0 switchflag 1
compute SNAD all snad/atom 3.5 0.99363 6 0.5 0.5 1.0 0.5 rmin0 0.0 bzeroflag 0 quadraticflag 0 switchflag 1
compute SNAV all snav/atom 3.5 0.99363 6 0.5 0.5 1.0 0.5 rmin0 0.0 bzeroflag 0 quadraticflag 0 switchflag 1
thermo_style custom pe
dump 2 all custom 100 dump.forces fx fy fz
run 0
WARNING: No fixes defined, atoms won't move (src/verlet.cpp:54)
Neighbor list info ...
  update every 1 steps, delay 10 steps, check yes
  max neighbors/atom: 2000, page size: 100000
  master list distance cutoff = 5.5
  ghost atom cutoff = 5.5
  binsize = 2.75, bins = 5 5 6
  4 neighbor lists, perpetual/occasional/extra = 1 3 0
  (1) pair zero, perpetual
      attributes: half, newton on
      pair build: half/bin/atomonly/newton
      stencil: half/bin/3d/newton
      bin: standard
  (2) compute sna/atom, occasional
      attributes: full, newton on
      pair build: full/bin/atomonly
      stencil: full/bin/3d
      bin: standard
  (3) compute snad/atom, occasional
      attributes: full, newton on
      pair build: full/bin/atomonly
      stencil: full/bin/3d
      bin: standard
  (4) compute snav/atom, occasional
      attributes: full, newton on
      pair build: full/bin/atomonly
      stencil: full/bin/3d
      bin: standard
Per MPI rank memory allocation (min/avg/max) = 8.641 | 8.641 | 8.641 Mbytes
PotEng 
           0 
Loop time of 9.53674e-07 on 1 procs for 0 steps with 192 atoms

0.0% CPU use with 1 MPI tasks x 1 OpenMP threads

MPI task timing breakdown:
Section |  min time  |  avg time  |  max time  |%varavg| %total
---------------------------------------------------------------
Pair    | 0          | 0          | 0          |   0.0 |  0.00
Neigh   | 0          | 0          | 0          |   0.0 |  0.00
Comm    | 0          | 0          | 0          |   0.0 |  0.00
Output  | 0          | 0          | 0          |   0.0 |  0.00
Modify  | 0          | 0          | 0          |   0.0 |  0.00
Other   |            | 9.537e-07  |            |       |100.00

Nlocal:        192.000 ave         192 max         192 min
Histogram: 1 0 0 0 0 0 0 0 0 0
Nghost:        1068.00 ave        1068 max        1068 min
Histogram: 1 0 0 0 0 0 0 0 0 0
Neighs:        4912.00 ave        4912 max        4912 min
Histogram: 1 0 0 0 0 0 0 0 0 0
FullNghs:      0.00000 ave           0 max           0 min
Histogram: 1 0 0 0 0 0 0 0 0 0

Total # of neighbors = 4912
Ave neighs/atom = 25.583333
Neighbor list builds = 0
Dangerous builds = 0
clear
OMP_NUM_THREADS environment is not set. Defaulting to 1 thread. (src/comm.cpp:94)
  using 1 OpenMP thread(s) per MPI task
units metal
boundary p p p
atom_style atomic
atom_modify map array
read_data data/7/DATA
Reading data file ...
  orthogonal box = (0.0000000 0.0000000 0.0000000) to (12.990503 11.250148 15.845291)
  1 by 1 by 1 MPI processor grid
  reading atoms ...
  192 atoms
  read_data CPU = 0.000 seconds
pair_style zero 3.5
pair_coeff * *
compute PE all pe
compute S all pressure thermo_temp
compute SNA all sna/atom 3.5 0.99363 6 0.5 0.5 1.0 0.5 rmin0 0.0 bzeroflag 0 quadraticflag 0 switchflag 1
compute SNAD all snad/atom 3.5 0.99363 6 0.5 0.5 1.0 0.5 rmin0 0.0 bzeroflag 0 quadraticflag 0 switchflag 1
compute SNAV all snav/atom 3.5 0.99363 6 0.5 0.5 1.0 0.5 rmin0 0.0 bzeroflag 0 quadraticflag 0 switchflag 1
thermo_style custom pe
dump 2 all custom 100 dump.forces fx fy fz
run 0
WARNING: No fixes defined, atoms won't move (src/verlet.cpp:54)
Neighbor list info ...
  update every 1 steps, delay 10 steps, check yes
  max neighbors/atom: 2000, page size: 100000
  master list distance cutoff = 5.5
  ghost atom cutoff = 5.5
  binsize = 2.75, bins = 5 5 6
  4 neighbor lists, perpetual/occasional/extra = 1 3 0
  (1) pair zero, perpetual
      attributes: half, newton on
      pair build: half/bin/atomonly/newton
      stencil: half/bin/3d/newton
      bin: standard
  (2) compute sna/atom, occasional
      attributes: full, newton on
      pair build: full/bin/atomonly
      stencil: full/bin/3d
      bin: standard
  (3) compute snad/atom, occasional
      attributes: full, newton on
      pair build: full/bin/atomonly
      stencil: full/bin/3d
      bin: standard
  (4) compute snav/atom, occasional
      attributes: full, newton on
      pair build: full/bin/atomonly
      stencil: full/bin/3d
      bin: standard
Per MPI rank memory allocation (min/avg/max) = 8.707 | 8.707 | 8.707 Mbytes
PotEng 
           0 
Loop time of 1.19209e-06 on 1 procs for 0 steps with 192 atoms

0.0% CPU use with 1 MPI tasks x 1 OpenMP threads

MPI task timing breakdown:
Section |  min time  |  avg time  |  max time  |%varavg| %total
---------------------------------------------------------------
Pair    | 0          | 0          | 0          |   0.0 |  0.00
Neigh   | 0          | 0          | 0          |   0.0 |  0.00
Comm    | 0          | 0          | 0          |   0.0 |  0.00
Output  | 0          | 0          | 0          |   0.0 |  0.00
Modify  | 0          | 0          | 0          |   0.0 |  0.00
Other   |            | 1.192e-06  |            |       |100.00

Nlocal:        192.000 ave         192 max         192 min
Histogram: 1 0 0 0 0 0 0 0 0 0
Nghost:        1068.00 ave        1068 max        1068 min
Histogram: 1 0 0 0 0 0 0 0 0 0
Neighs:        4894.00 ave        4894 max        4894 min
Histogram: 1 0 0 0 0 0 0 0 0 0
FullNghs:      0.00000 ave           0 max           0 min
Histogram: 1 0 0 0 0 0 0 0 0 0

Total # of neighbors = 4894
Ave neighs/atom = 25.489583
Neighbor list builds = 0
Dangerous builds = 0
clear
OMP_NUM_THREADS environment is not set. Defaulting to 1 thread. (src/comm.cpp:94)
  using 1 OpenMP thread(s) per MPI task
units metal
boundary p p p
atom_style atomic
atom_modify map array
read_data data/8/DATA
Reading data file ...
  orthogonal box = (0.0000000 0.0000000 0.0000000) to (12.990503 11.250148 15.845291)
  1 by 1 by 1 MPI processor grid
  reading atoms ...
  192 atoms
  read_data CPU = 0.000 seconds
pair_style zero 3.5
pair_coeff * *
compute PE all pe
compute S all pressure thermo_temp
compute SNA all sna/atom 3.5 0.99363 6 0.5 0.5 1.0 0.5 rmin0 0.0 bzeroflag 0 quadraticflag 0 switchflag 1
compute SNAD all snad/atom 3.5 0.99363 6 0.5 0.5 1.0 0.5 rmin0 0.0 bzeroflag 0 quadraticflag 0 switchflag 1
compute SNAV all snav/atom 3.5 0.99363 6 0.5 0.5 1.0 0.5 rmin0 0.0 bzeroflag 0 quadraticflag 0 switchflag 1
thermo_style custom pe
dump 2 all custom 100 dump.forces fx fy fz
run 0
WARNING: No fixes defined, atoms won't move (src/verlet.cpp:54)
Neighbor list info ...
  update every 1 steps, delay 10 steps, check yes
  max neighbors/atom: 2000, page size: 100000
  master list distance cutoff = 5.5
  ghost atom cutoff = 5.5
  binsize = 2.75, bins = 5 5 6
  4 neighbor lists, perpetual/occasional/extra = 1 3 0
  (1) pair zero, perpetual
      attributes: half, newton on
      pair build: half/bin/atomonly/newton
      stencil: half/bin/3d/newton
      bin: standard
  (2) compute sna/atom, occasional
      attributes: full, newton on
      pair build: full/bin/atomonly
      stencil: full/bin/3d
      bin: standard
  (3) compute snad/atom, occasional
      attributes: full, newton on
      pair build: full/bin/atomonly
      stencil: full/bin/3d
      bin: standard
  (4) compute snav/atom, occasional
      attributes: full, newton on
      pair build: full/bin/atomonly
      stencil: full/bin/3d
      bin: standard
Per MPI rank memory allocation (min/avg/max) = 8.691 | 8.691 | 8.691 Mbytes
PotEng 
           0 
Loop time of 1.90735e-06 on 1 procs for 0 steps with 192 atoms

0.0% CPU use with 1 MPI tasks x 1 OpenMP threads

MPI task timing breakdown:
Section |  min time  |  avg time  |  max time  |%varavg| %total
---------------------------------------------------------------
Pair    | 0          | 0          | 0          |   0.0 |  0.00
Neigh   | 0          | 0          | 0          |   0.0 |  0.00
Comm    | 0          | 0          | 0          |   0.0 |  0.00
Output  | 0          | 0          | 0          |   0.0 |  0.00
Modify  | 0          | 0          | 0          |   0.0 |  0.00
Other   |            | 1.907e-06  |            |       |100.00

Nlocal:        192.000 ave         192 max         192 min
Histogram: 1 0 0 0 0 0 0 0 0 0
Nghost:        1068.00 ave        1068 max        1068 min
Histogram: 1 0 0 0 0 0 0 0 0 0
Neighs:        4916.00 ave        4916 max        4916 min
Histogram: 1 0 0 0 0 0 0 0 0 0
FullNghs:      0.00000 ave           0 max           0 min
Histogram: 1 0 0 0 0 0 0 0 0 0

Total # of neighbors = 4916
Ave neighs/atom = 25.604167
Neighbor list builds = 0
Dangerous builds = 0
clear
OMP_NUM_THREADS environment is not set. Defaulting to 1 thread. (src/comm.cpp:94)
  using 1 OpenMP thread(s) per MPI task
units metal
boundary p p p
atom_style atomic
atom_modify map array
read_data data/9/DATA
Reading data file ...
  orthogonal box = (0.0000000 0.0000000 0.0000000) to (12.990503 11.250148 15.845291)
  1 by 1 by 1 MPI processor grid
  reading atoms ...
  192 atoms
  read_data CPU = 0.000 seconds
pair_style zero 3.5
pair_coeff * *
compute PE all pe
compute S all pressure thermo_temp
compute SNA all sna/atom 3.5 0.99363 6 0.5 0.5 1.0 0.5 rmin0 0.0 bzeroflag 0 quadraticflag 0 switchflag 1
compute SNAD all snad/atom 3.5 0.99363 6 0.5 0.5 1.0 0.5 rmin0 0.0 bzeroflag 0 quadraticflag 0 switchflag 1
compute SNAV all snav/atom 3.5 0.99363 6 0.5 0.5 1.0 0.5 rmin0 0.0 bzeroflag 0 quadraticflag 0 switchflag 1
thermo_style custom pe
dump 2 all custom 100 dump.forces fx fy fz
run 0
WARNING: No fixes defined, atoms won't move (src/verlet.cpp:54)
Neighbor list info ...
  update every 1 steps, delay 10 steps, check yes
  max neighbors/atom: 2000, page size: 100000
  master list distance cutoff = 5.5
  ghost atom cutoff = 5.5
  binsize = 2.75, bins = 5 5 6
  4 neighbor lists, perpetual/occasional/extra = 1 3 0
  (1) pair zero, perpetual
      attributes: half, newton on
      pair build: half/bin/atomonly/newton
      stencil: half/bin/3d/newton
      bin: standard
  (2) compute sna/atom, occasional
      attributes: full, newton on
      pair build: full/bin/atomonly
      stencil: full/bin/3d
      bin: standard
  (3) compute snad/atom, occasional
      attributes: full, newton on
      pair build: full/bin/atomonly
      stencil: full/bin/3d
      bin: standard
  (4) compute snav/atom, occasional
      attributes: full, newton on
      pair build: full/bin/atomonly
      stencil: full/bin/3d
      bin: standard
Per MPI rank memory allocation (min/avg/max) = 8.641 | 8.641 | 8.641 Mbytes
PotEng 
           0 
Loop time of 9.53674e-07 on 1 procs for 0 steps with 192 atoms

0.0% CPU use with 1 MPI tasks x 1 OpenMP threads

MPI task timing breakdown:
Section |  min time  |  avg time  |  max time  |%varavg| %total
---------------------------------------------------------------
Pair    | 0          | 0          | 0          |   0.0 |  0.00
Neigh   | 0          | 0          | 0          |   0.0 |  0.00
Comm    | 0          | 0          | 0          |   0.0 |  0.00
Output  | 0          | 0          | 0          |   0.0 |  0.00
Modify  | 0          | 0          | 0          |   0.0 |  0.00
Other   |            | 9.537e-07  |            |       |100.00

Nlocal:        192.000 ave         192 max         192 min
Histogram: 1 0 0 0 0 0 0 0 0 0
Nghost:        1068.00 ave        1068 max        1068 min
Histogram: 1 0 0 0 0 0 0 0 0 0
Neighs:        4922.00 ave        4922 max        4922 min
Histogram: 1 0 0 0 0 0 0 0 0 0
FullNghs:      0.00000 ave           0 max           0 min
Histogram: 1 0 0 0 0 0 0 0 0 0

Total # of neighbors = 4922
Ave neighs/atom = 25.635417
Neighbor list builds = 0
Dangerous builds = 0
clear
OMP_NUM_THREADS environment is not set. Defaulting to 1 thread. (src/comm.cpp:94)
  using 1 OpenMP thread(s) per MPI task
units metal
boundary p p p
atom_style atomic
atom_modify map array
read_data data/10/DATA
Reading data file ...
  orthogonal box = (0.0000000 0.0000000 0.0000000) to (12.990503 11.250148 15.845291)
  1 by 1 by 1 MPI processor grid
  reading atoms ...
  192 atoms
  read_data CPU = 0.000 seconds
pair_style zero 3.5
pair_coeff * *
compute PE all pe
compute S all pressure thermo_temp
compute SNA all sna/atom 3.5 0.99363 6 0.5 0.5 1.0 0.5 rmin0 0.0 bzeroflag 0 quadraticflag 0 switchflag 1
compute SNAD all snad/atom 3.5 0.99363 6 0.5 0.5 1.0 0.5 rmin0 0.0 bzeroflag 0 quadraticflag 0 switchflag 1
compute SNAV all snav/atom 3.5 0.99363 6 0.5 0.5 1.0 0.5 rmin0 0.0 bzeroflag 0 quadraticflag 0 switchflag 1
thermo_style custom pe
dump 2 all custom 100 dump.forces fx fy fz
run 0
WARNING: No fixes defined, atoms won't move (src/verlet.cpp:54)
Neighbor list info ...
  update every 1 steps, delay 10 steps, check yes
  max neighbors/atom: 2000, page size: 100000
  master list distance cutoff = 5.5
  ghost atom cutoff = 5.5
  binsize = 2.75, bins = 5 5 6
  4 neighbor lists, perpetual/occasional/extra = 1 3 0
  (1) pair zero, perpetual
      attributes: half, newton on
      pair build: half/bin/atomonly/newton
      stencil: half/bin/3d/newton
      bin: standard
  (2) compute sna/atom, occasional
      attributes: full, newton on
      pair build: full/bin/atomonly
      stencil: full/bin/3d
      bin: standard
  (3) compute snad/atom, occasional
      attributes: full, newton on
      pair build: full/bin/atomonly
      stencil: full/bin/3d
      bin: standard
  (4) compute snav/atom, occasional
      attributes: full, newton on
      pair build: full/bin/atomonly
      stencil: full/bin/3d
      bin: standard
Per MPI rank memory allocation (min/avg/max) = 8.707 | 8.707 | 8.707 Mbytes
PotEng 
           0 
Loop time of 9.53674e-07 on 1 procs for 0 steps with 192 atoms

0.0% CPU use with 1 MPI tasks x 1 OpenMP threads

MPI task timing breakdown:
Section |  min time  |  avg time  |  max time  |%varavg| %total
---------------------------------------------------------------
Pair    | 0          | 0          | 0          |   0.0 |  0.00
Neigh   | 0          | 0          | 0          |   0.0 |  0.00
Comm    | 0          | 0          | 0          |   0.0 |  0.00
Output  | 0          | 0          | 0          |   0.0 |  0.00
Modify  | 0          | 0          | 0          |   0.0 |  0.00
Other   |            | 9.537e-07  |            |       |100.00

Nlocal:        192.000 ave         192 max         192 min
Histogram: 1 0 0 0 0 0 0 0 0 0
Nghost:        1068.00 ave        1068 max        1068 min
Histogram: 1 0 0 0 0 0 0 0 0 0
Neighs:        4910.00 ave        4910 max        4910 min
Histogram: 1 0 0 0 0 0 0 0 0 0
FullNghs:      0.00000 ave           0 max           0 min
Histogram: 1 0 0 0 0 0 0 0 0 0

Total # of neighbors = 4910
Ave neighs/atom = 25.572917
Neighbor list builds = 0
Dangerous builds = 0
clear
OMP_NUM_THREADS environment is not set. Defaulting to 1 thread. (src/comm.cpp:94)
  using 1 OpenMP thread(s) per MPI task
units metal
boundary p p p
atom_style atomic
atom_modify map array
read_data data/11/DATA
Reading data file ...
  orthogonal box = (0.0000000 0.0000000 0.0000000) to (12.990503 11.250148 15.845291)
  1 by 1 by 1 MPI processor grid
  reading atoms ...
  192 atoms
  read_data CPU = 0.000 seconds
pair_style zero 3.5
pair_coeff * *
compute PE all pe
compute S all pressure thermo_temp
compute SNA all sna/atom 3.5 0.99363 6 0.5 0.5 1.0 0.5 rmin0 0.0 bzeroflag 0 quadraticflag 0 switchflag 1
compute SNAD all snad/atom 3.5 0.99363 6 0.5 0.5 1.0 0.5 rmin0 0.0 bzeroflag 0 quadraticflag 0 switchflag 1
compute SNAV all snav/atom 3.5 0.99363 6 0.5 0.5 1.0 0.5 rmin0 0.0 bzeroflag 0 quadraticflag 0 switchflag 1
thermo_style custom pe
dump 2 all custom 100 dump.forces fx fy fz
run 0
WARNING: No fixes defined, atoms won't move (src/verlet.cpp:54)
Neighbor list info ...
  update every 1 steps, delay 10 steps, check yes
  max neighbors/atom: 2000, page size: 100000
  master list distance cutoff = 5.5
  ghost atom cutoff = 5.5
  binsize = 2.75, bins = 5 5 6
  4 neighbor lists, perpetual/occasional/extra = 1 3 0
  (1) pair zero, perpetual
      attributes: half, newton on
      pair build: half/bin/atomonly/newton
      stencil: half/bin/3d/newton
      bin: standard
  (2) compute sna/atom, occasional
      attributes: full, newton on
      pair build: full/bin/atomonly
      stencil: full/bin/3d
      bin: standard
  (3) compute snad/atom, occasional
      attributes: full, newton on
      pair build: full/bin/atomonly
      stencil: full/bin/3d
      bin: standard
  (4) compute snav/atom, occasional
      attributes: full, newton on
      pair build: full/bin/atomonly
      stencil: full/bin/3d
      bin: standard
Per MPI rank memory allocation (min/avg/max) = 8.691 | 8.691 | 8.691 Mbytes
PotEng 
           0 
Loop time of 9.53674e-07 on 1 procs for 0 steps with 192 atoms

0.0% CPU use with 1 MPI tasks x 1 OpenMP threads

MPI task timing breakdown:
Section |  min time  |  avg time  |  max time  |%varavg| %total
---------------------------------------------------------------
Pair    | 0          | 0          | 0          |   0.0 |  0.00
Neigh   | 0          | 0          | 0          |   0.0 |  0.00
Comm    | 0          | 0          | 0          |   0.0 |  0.00
Output  | 0          | 0          | 0          |   0.0 |  0.00
Modify  | 0          | 0          | 0          |   0.0 |  0.00
Other   |            | 9.537e-07  |            |       |100.00

Nlocal:        192.000 ave         192 max         192 min
Histogram: 1 0 0 0 0 0 0 0 0 0
Nghost:        1068.00 ave        1068 max        1068 min
Histogram: 1 0 0 0 0 0 0 0 0 0
Neighs:        4923.00 ave        4923 max        4923 min
Histogram: 1 0 0 0 0 0 0 0 0 0
FullNghs:      0.00000 ave           0 max           0 min
Histogram: 1 0 0 0 0 0 0 0 0 0

Total # of neighbors = 4923
Ave neighs/atom = 25.640625
Neighbor list builds = 0
Dangerous builds = 0
clear
OMP_NUM_THREADS environment is not set. Defaulting to 1 thread. (src/comm.cpp:94)
  using 1 OpenMP thread(s) per MPI task
units metal
boundary p p p
atom_style atomic
atom_modify map array
read_data data/12/DATA
Reading data file ...
  orthogonal box = (0.0000000 0.0000000 0.0000000) to (12.990503 11.250148 15.845291)
  1 by 1 by 1 MPI processor grid
  reading atoms ...
  192 atoms
  read_data CPU = 0.000 seconds
pair_style zero 3.5
pair_coeff * *
compute PE all pe
compute S all pressure thermo_temp
compute SNA all sna/atom 3.5 0.99363 6 0.5 0.5 1.0 0.5 rmin0 0.0 bzeroflag 0 quadraticflag 0 switchflag 1
compute SNAD all snad/atom 3.5 0.99363 6 0.5 0.5 1.0 0.5 rmin0 0.0 bzeroflag 0 quadraticflag 0 switchflag 1
compute SNAV all snav/atom 3.5 0.99363 6 0.5 0.5 1.0 0.5 rmin0 0.0 bzeroflag 0 quadraticflag 0 switchflag 1
thermo_style custom pe
dump 2 all custom 100 dump.forces fx fy fz
run 0
WARNING: No fixes defined, atoms won't move (src/verlet.cpp:54)
Neighbor list info ...
  update every 1 steps, delay 10 steps, check yes
  max neighbors/atom: 2000, page size: 100000
  master list distance cutoff = 5.5
  ghost atom cutoff = 5.5
  binsize = 2.75, bins = 5 5 6
  4 neighbor lists, perpetual/occasional/extra = 1 3 0
  (1) pair zero, perpetual
      attributes: half, newton on
      pair build: half/bin/atomonly/newton
      stencil: half/bin/3d/newton
      bin: standard
  (2) compute sna/atom, occasional
      attributes: full, newton on
      pair build: full/bin/atomonly
      stencil: full/bin/3d
      bin: standard
  (3) compute snad/atom, occasional
      attributes: full, newton on
      pair build: full/bin/atomonly
      stencil: full/bin/3d
      bin: standard
  (4) compute snav/atom, occasional
      attributes: full, newton on
      pair build: full/bin/atomonly
      stencil: full/bin/3d
      bin: standard
Per MPI rank memory allocation (min/avg/max) = 8.658 | 8.658 | 8.658 Mbytes
PotEng 
           0 
Loop time of 0 on 1 procs for 0 steps with 192 atoms

0.0% CPU use with 1 MPI tasks x 1 OpenMP threads

MPI task timing breakdown:
Section |  min time  |  avg time  |  max time  |%varavg| %total
---------------------------------------------------------------
Pair    | 0          | 0          | 0          |   0.0 |  0.00
Neigh   | 0          | 0          | 0          |   0.0 |  0.00
Comm    | 0          | 0          | 0          |   0.0 |  0.00
Output  | 0          | 0          | 0          |   0.0 |  0.00
Modify  | 0          | 0          | 0          |   0.0 |  0.00
Other   |            | 0          |            |       |  0.00

Nlocal:        192.000 ave         192 max         192 min
Histogram: 1 0 0 0 0 0 0 0 0 0
Nghost:        1068.00 ave        1068 max        1068 min
Histogram: 1 0 0 0 0 0 0 0 0 0
Neighs:        4897.00 ave        4897 max        4897 min
Histogram: 1 0 0 0 0 0 0 0 0 0
FullNghs:      0.00000 ave           0 max           0 min
Histogram: 1 0 0 0 0 0 0 0 0 0

Total # of neighbors = 4897
Ave neighs/atom = 25.505208
Neighbor list builds = 0
Dangerous builds = 0
clear
OMP_NUM_THREADS environment is not set. Defaulting to 1 thread. (src/comm.cpp:94)
  using 1 OpenMP thread(s) per MPI task
units metal
boundary p p p
atom_style atomic
atom_modify map array
read_data data/13/DATA
Reading data file ...
  orthogonal box = (0.0000000 0.0000000 0.0000000) to (12.990503 11.250148 15.845291)
  1 by 1 by 1 MPI processor grid
  reading atoms ...
  192 atoms
  read_data CPU = 0.000 seconds
pair_style zero 3.5
pair_coeff * *
compute PE all pe
compute S all pressure thermo_temp
compute SNA all sna/atom 3.5 0.99363 6 0.5 0.5 1.0 0.5 rmin0 0.0 bzeroflag 0 quadraticflag 0 switchflag 1
compute SNAD all snad/atom 3.5 0.99363 6 0.5 0.5 1.0 0.5 rmin0 0.0 bzeroflag 0 quadraticflag 0 switchflag 1
compute SNAV all snav/atom 3.5 0.99363 6 0.5 0.5 1.0 0.5 rmin0 0.0 bzeroflag 0 quadraticflag 0 switchflag 1
thermo_style custom pe
dump 2 all custom 100 dump.forces fx fy fz
run 0
WARNING: No fixes defined, atoms won't move (src/verlet.cpp:54)
Neighbor list info ...
  update every 1 steps, delay 10 steps, check yes
  max neighbors/atom: 2000, page size: 100000
  master list distance cutoff = 5.5
  ghost atom cutoff = 5.5
  binsize = 2.75, bins = 5 5 6
  4 neighbor lists, perpetual/occasional/extra = 1 3 0
  (1) pair zero, perpetual
      attributes: half, newton on
      pair build: half/bin/atomonly/newton
      stencil: half/bin/3d/newton
      bin: standard
  (2) compute sna/atom, occasional
      attributes: full, newton on
      pair build: full/bin/atomonly
      stencil: full/bin/3d
      bin: standard
  (3) compute snad/atom, occasional
      attributes: full, newton on
      pair build: full/bin/atomonly
      stencil: full/bin/3d
      bin: standard
  (4) compute snav/atom, occasional
      attributes: full, newton on
      pair build: full/bin/atomonly
      stencil: full/bin/3d
      bin: standard
Per MPI rank memory allocation (min/avg/max) = 8.641 | 8.641 | 8.641 Mbytes
PotEng 
           0 
Loop time of 9.53674e-07 on 1 procs for 0 steps with 192 atoms

0.0% CPU use with 1 MPI tasks x 1 OpenMP threads

MPI task timing breakdown:
Section |  min time  |  avg time  |  max time  |%varavg| %total
---------------------------------------------------------------
Pair    | 0          | 0          | 0          |   0.0 |  0.00
Neigh   | 0          | 0          | 0          |   0.0 |  0.00
Comm    | 0          | 0          | 0          |   0.0 |  0.00
Output  | 0          | 0          | 0          |   0.0 |  0.00
Modify  | 0          | 0          | 0          |   0.0 |  0.00
Other   |            | 9.537e-07  |            |       |100.00

Nlocal:        192.000 ave         192 max         192 min
Histogram: 1 0 0 0 0 0 0 0 0 0
Nghost:        1068.00 ave        1068 max        1068 min
Histogram: 1 0 0 0 0 0 0 0 0 0
Neighs:        4911.00 ave        4911 max        4911 min
Histogram: 1 0 0 0 0 0 0 0 0 0
FullNghs:      0.00000 ave           0 max           0 min
Histogram: 1 0 0 0 0 0 0 0 0 0

Total # of neighbors = 4911
Ave neighs/atom = 25.578125
Neighbor list builds = 0
Dangerous builds = 0
clear
OMP_NUM_THREADS environment is not set. Defaulting to 1 thread. (src/comm.cpp:94)
  using 1 OpenMP thread(s) per MPI task
units metal
boundary p p p
atom_style atomic
atom_modify map array
read_data data/14/DATA
Reading data file ...
  orthogonal box = (0.0000000 0.0000000 0.0000000) to (12.990503 11.250148 15.845291)
  1 by 1 by 1 MPI processor grid
  reading atoms ...
  192 atoms
  read_data CPU = 0.000 seconds
pair_style zero 3.5
pair_coeff * *
compute PE all pe
compute S all pressure thermo_temp
compute SNA all sna/atom 3.5 0.99363 6 0.5 0.5 1.0 0.5 rmin0 0.0 bzeroflag 0 quadraticflag 0 switchflag 1
compute SNAD all snad/atom 3.5 0.99363 6 0.5 0.5 1.0 0.5 rmin0 0.0 bzeroflag 0 quadraticflag 0 switchflag 1
compute SNAV all snav/atom 3.5 0.99363 6 0.5 0.5 1.0 0.5 rmin0 0.0 bzeroflag 0 quadraticflag 0 switchflag 1
thermo_style custom pe
dump 2 all custom 100 dump.forces fx fy fz
run 0
WARNING: No fixes defined, atoms won't move (src/verlet.cpp:54)
Neighbor list info ...
  update every 1 steps, delay 10 steps, check yes
  max neighbors/atom: 2000, page size: 100000
  master list distance cutoff = 5.5
  ghost atom cutoff = 5.5
  binsize = 2.75, bins = 5 5 6
  4 neighbor lists, perpetual/occasional/extra = 1 3 0
  (1) pair zero, perpetual
      attributes: half, newton on
      pair build: half/bin/atomonly/newton
      stencil: half/bin/3d/newton
      bin: standard
  (2) compute sna/atom, occasional
      attributes: full, newton on
      pair build: full/bin/atomonly
      stencil: full/bin/3d
      bin: standard
  (3) compute snad/atom, occasional
      attributes: full, newton on
      pair build: full/bin/atomonly
      stencil: full/bin/3d
      bin: standard
  (4) compute snav/atom, occasional
      attributes: full, newton on
      pair build: full/bin/atomonly
      stencil: full/bin/3d
      bin: standard
Per MPI rank memory allocation (min/avg/max) = 8.658 | 8.658 | 8.658 Mbytes
PotEng 
           0 
Loop time of 9.53674e-07 on 1 procs for 0 steps with 192 atoms

0.0% CPU use with 1 MPI tasks x 1 OpenMP threads

MPI task timing breakdown:
Section |  min time  |  avg time  |  max time  |%varavg| %total
---------------------------------------------------------------
Pair    | 0          | 0          | 0          |   0.0 |  0.00
Neigh   | 0          | 0          | 0          |   0.0 |  0.00
Comm    | 0          | 0          | 0          |   0.0 |  0.00
Output  | 0          | 0          | 0          |   0.0 |  0.00
Modify  | 0          | 0          | 0          |   0.0 |  0.00
Other   |            | 9.537e-07  |            |       |100.00

Nlocal:        192.000 ave         192 max         192 min
Histogram: 1 0 0 0 0 0 0 0 0 0
Nghost:        1068.00 ave        1068 max        1068 min
Histogram: 1 0 0 0 0 0 0 0 0 0
Neighs:        4879.00 ave        4879 max        4879 min
Histogram: 1 0 0 0 0 0 0 0 0 0
FullNghs:      0.00000 ave           0 max           0 min
Histogram: 1 0 0 0 0 0 0 0 0 0

Total # of neighbors = 4879
Ave neighs/atom = 25.411458
Neighbor list builds = 0
Dangerous builds = 0
clear
OMP_NUM_THREADS environment is not set. Defaulting to 1 thread. (src/comm.cpp:94)
  using 1 OpenMP thread(s) per MPI task
units metal
boundary p p p
atom_style atomic
atom_modify map array
read_data data/15/DATA
Reading data file ...
  orthogonal box = (0.0000000 0.0000000 0.0000000) to (12.990503 11.250148 15.845291)
  1 by 1 by 1 MPI processor grid
  reading atoms ...
  192 atoms
  read_data CPU = 0.000 seconds
pair_style zero 3.5
pair_coeff * *
compute PE all pe
compute S all pressure thermo_temp
compute SNA all sna/atom 3.5 0.99363 6 0.5 0.5 1.0 0.5 rmin0 0.0 bzeroflag 0 quadraticflag 0 switchflag 1
compute SNAD all snad/atom 3.5 0.99363 6 0.5 0.5 1.0 0.5 rmin0 0.0 bzeroflag 0 quadraticflag 0 switchflag 1
compute SNAV all snav/atom 3.5 0.99363 6 0.5 0.5 1.0 0.5 rmin0 0.0 bzeroflag 0 quadraticflag 0 switchflag 1
thermo_style custom pe
dump 2 all custom 100 dump.forces fx fy fz
run 0
WARNING: No fixes defined, atoms won't move (src/verlet.cpp:54)
Neighbor list info ...
  update every 1 steps, delay 10 steps, check yes
  max neighbors/atom: 2000, page size: 100000
  master list distance cutoff = 5.5
  ghost atom cutoff = 5.5
  binsize = 2.75, bins = 5 5 6
  4 neighbor lists, perpetual/occasional/extra = 1 3 0
  (1) pair zero, perpetual
      attributes: half, newton on
      pair build: half/bin/atomonly/newton
      stencil: half/bin/3d/newton
      bin: standard
  (2) compute sna/atom, occasional
      attributes: full, newton on
      pair build: full/bin/atomonly
      stencil: full/bin/3d
      bin: standard
  (3) compute snad/atom, occasional
      attributes: full, newton on
      pair build: full/bin/atomonly
      stencil: full/bin/3d
      bin: standard
  (4) compute snav/atom, occasional
      attributes: full, newton on
      pair build: full/bin/atomonly
      stencil: full/bin/3d
      bin: standard
Per MPI rank memory allocation (min/avg/max) = 8.823 | 8.823 | 8.823 Mbytes
PotEng 
           0 
Loop time of 1.19209e-06 on 1 procs for 0 steps with 192 atoms

0.0% CPU use with 1 MPI tasks x 1 OpenMP threads

MPI task timing breakdown:
Section |  min time  |  avg time  |  max time  |%varavg| %total
---------------------------------------------------------------
Pair    | 0          | 0          | 0          |   0.0 |  0.00
Neigh   | 0          | 0          | 0          |   0.0 |  0.00
Comm    | 0          | 0          | 0          |   0.0 |  0.00
Output  | 0          | 0          | 0          |   0.0 |  0.00
Modify  | 0          | 0          | 0          |   0.0 |  0.00
Other   |            | 1.192e-06  |            |       |100.00

Nlocal:        192.000 ave         192 max         192 min
Histogram: 1 0 0 0 0 0 0 0 0 0
Nghost:        1068.00 ave        1068 max        1068 min
Histogram: 1 0 0 0 0 0 0 0 0 0
Neighs:        4922.00 ave        4922 max        4922 min
Histogram: 1 0 0 0 0 0 0 0 0 0
FullNghs:      0.00000 ave           0 max           0 min
Histogram: 1 0 0 0 0 0 0 0 0 0

Total # of neighbors = 4922
Ave neighs/atom = 25.635417
Neighbor list builds = 0
Dangerous builds = 0
clear
OMP_NUM_THREADS environment is not set. Defaulting to 1 thread. (src/comm.cpp:94)
  using 1 OpenMP thread(s) per MPI task
units metal
boundary p p p
atom_style atomic
atom_modify map array
read_data data/16/DATA
Reading data file ...
  orthogonal box = (0.0000000 0.0000000 0.0000000) to (12.990503 11.250148 15.845291)
  1 by 1 by 1 MPI processor grid
  reading atoms ...
  192 atoms
  read_data CPU = 0.000 seconds
pair_style zero 3.5
pair_coeff * *
compute PE all pe
compute S all pressure thermo_temp
compute SNA all sna/atom 3.5 0.99363 6 0.5 0.5 1.0 0.5 rmin0 0.0 bzeroflag 0 quadraticflag 0 switchflag 1
compute SNAD all snad/atom 3.5 0.99363 6 0.5 0.5 1.0 0.5 rmin0 0.0 bzeroflag 0 quadraticflag 0 switchflag 1
compute SNAV all snav/atom 3.5 0.99363 6 0.5 0.5 1.0 0.5 rmin0 0.0 bzeroflag 0 quadraticflag 0 switchflag 1
thermo_style custom pe
dump 2 all custom 100 dump.forces fx fy fz
run 0
WARNING: No fixes defined, atoms won't move (src/verlet.cpp:54)
Neighbor list info ...
  update every 1 steps, delay 10 steps, check yes
  max neighbors/atom: 2000, page size: 100000
  master list distance cutoff = 5.5
  ghost atom cutoff = 5.5
  binsize = 2.75, bins = 5 5 6
  4 neighbor lists, perpetual/occasional/extra = 1 3 0
  (1) pair zero, perpetual
      attributes: half, newton on
      pair build: half/bin/atomonly/newton
      stencil: half/bin/3d/newton
      bin: standard
  (2) compute sna/atom, occasional
      attributes: full, newton on
      pair build: full/bin/atomonly
      stencil: full/bin/3d
      bin: standard
  (3) compute snad/atom, occasional
      attributes: full, newton on
      pair build: full/bin/atomonly
      stencil: full/bin/3d
      bin: standard
  (4) compute snav/atom, occasional
      attributes: full, newton on
      pair build: full/bin/atomonly
      stencil: full/bin/3d
      bin: standard
Per MPI rank memory allocation (min/avg/max) = 8.658 | 8.658 | 8.658 Mbytes
PotEng 
           0 
Loop time of 9.53674e-07 on 1 procs for 0 steps with 192 atoms

0.0% CPU use with 1 MPI tasks x 1 OpenMP threads

MPI task timing breakdown:
Section |  min time  |  avg time  |  max time  |%varavg| %total
---------------------------------------------------------------
Pair    | 0          | 0          | 0          |   0.0 |  0.00
Neigh   | 0          | 0          | 0          |   0.0 |  0.00
Comm    | 0          | 0          | 0          |   0.0 |  0.00
Output  | 0          | 0          | 0          |   0.0 |  0.00
Modify  | 0          | 0          | 0          |   0.0 |  0.00
Other   |            | 9.537e-07  |            |       |100.00

Nlocal:        192.000 ave         192 max         192 min
Histogram: 1 0 0 0 0 0 0 0 0 0
Nghost:        1068.00 ave        1068 max        1068 min
Histogram: 1 0 0 0 0 0 0 0 0 0
Neighs:        4901.00 ave        4901 max        4901 min
Histogram: 1 0 0 0 0 0 0 0 0 0
FullNghs:      0.00000 ave           0 max           0 min
Histogram: 1 0 0 0 0 0 0 0 0 0

Total # of neighbors = 4901
Ave neighs/atom = 25.526042
Neighbor list builds = 0
Dangerous builds = 0
clear
OMP_NUM_THREADS environment is not set. Defaulting to 1 thread. (src/comm.cpp:94)
  using 1 OpenMP thread(s) per MPI task
units metal
boundary p p p
atom_style atomic
atom_modify map array
read_data data/17/DATA
Reading data file ...
  orthogonal box = (0.0000000 0.0000000 0.0000000) to (12.990503 11.250148 15.845291)
  1 by 1 by 1 MPI processor grid
  reading atoms ...
  192 atoms
  read_data CPU = 0.000 seconds
pair_style zero 3.5
pair_coeff * *
compute PE all pe
compute S all pressure thermo_temp
compute SNA all sna/atom 3.5 0.99363 6 0.5 0.5 1.0 0.5 rmin0 0.0 bzeroflag 0 quadraticflag 0 switchflag 1
compute SNAD all snad/atom 3.5 0.99363 6 0.5 0.5 1.0 0.5 rmin0 0.0 bzeroflag 0 quadraticflag 0 switchflag 1
compute SNAV all snav/atom 3.5 0.99363 6 0.5 0.5 1.0 0.5 rmin0 0.0 bzeroflag 0 quadraticflag 0 switchflag 1
thermo_style custom pe
dump 2 all custom 100 dump.forces fx fy fz
run 0
WARNING: No fixes defined, atoms won't move (src/verlet.cpp:54)
Neighbor list info ...
  update every 1 steps, delay 10 steps, check yes
  max neighbors/atom: 2000, page size: 100000
  master list distance cutoff = 5.5
  ghost atom cutoff = 5.5
  binsize = 2.75, bins = 5 5 6
  4 neighbor lists, perpetual/occasional/extra = 1 3 0
  (1) pair zero, perpetual
      attributes: half, newton on
      pair build: half/bin/atomonly/newton
      stencil: half/bin/3d/newton
      bin: standard
  (2) compute sna/atom, occasional
      attributes: full, newton on
      pair build: full/bin/atomonly
      stencil: full/bin/3d
      bin: standard
  (3) compute snad/atom, occasional
      attributes: full, newton on
      pair build: full/bin/atomonly
      stencil: full/bin/3d
      bin: standard
  (4) compute snav/atom, occasional
      attributes: full, newton on
      pair build: full/bin/atomonly
      stencil: full/bin/3d
      bin: standard
Per MPI rank memory allocation (min/avg/max) = 8.641 | 8.641 | 8.641 Mbytes
PotEng 
           0 
Loop time of 9.53674e-07 on 1 procs for 0 steps with 192 atoms

0.0% CPU use with 1 MPI tasks x 1 OpenMP threads

MPI task timing breakdown:
Section |  min time  |  avg time  |  max time  |%varavg| %total
---------------------------------------------------------------
Pair    | 0          | 0          | 0          |   0.0 |  0.00
Neigh   | 0          | 0          | 0          |   0.0 |  0.00
Comm    | 0          | 0          | 0          |   0.0 |  0.00
Output  | 0          | 0          | 0          |   0.0 |  0.00
Modify  | 0          | 0          | 0          |   0.0 |  0.00
Other   |            | 9.537e-07  |            |       |100.00

Nlocal:        192.000 ave         192 max         192 min
Histogram: 1 0 0 0 0 0 0 0 0 0
Nghost:        1068.00 ave        1068 max        1068 min
Histogram: 1 0 0 0 0 0 0 0 0 0
Neighs:        4904.00 ave        4904 max        4904 min
Histogram: 1 0 0 0 0 0 0 0 0 0
FullNghs:      0.00000 ave           0 max           0 min
Histogram: 1 0 0 0 0 0 0 0 0 0

Total # of neighbors = 4904
Ave neighs/atom = 25.541667
Neighbor list builds = 0
Dangerous builds = 0
clear
OMP_NUM_THREADS environment is not set. Defaulting to 1 thread. (src/comm.cpp:94)
  using 1 OpenMP thread(s) per MPI task
units metal
boundary p p p
atom_style atomic
atom_modify map array
read_data data/18/DATA
Reading data file ...
  orthogonal box = (0.0000000 0.0000000 0.0000000) to (12.990503 11.250148 15.845291)
  1 by 1 by 1 MPI processor grid
  reading atoms ...
  192 atoms
  read_data CPU = 0.000 seconds
pair_style zero 3.5
pair_coeff * *
compute PE all pe
compute S all pressure thermo_temp
compute SNA all sna/atom 3.5 0.99363 6 0.5 0.5 1.0 0.5 rmin0 0.0 bzeroflag 0 quadraticflag 0 switchflag 1
compute SNAD all snad/atom 3.5 0.99363 6 0.5 0.5 1.0 0.5 rmin0 0.0 bzeroflag 0 quadraticflag 0 switchflag 1
compute SNAV all snav/atom 3.5 0.99363 6 0.5 0.5 1.0 0.5 rmin0 0.0 bzeroflag 0 quadraticflag 0 switchflag 1
thermo_style custom pe
dump 2 all custom 100 dump.forces fx fy fz
run 0
WARNING: No fixes defined, atoms won't move (src/verlet.cpp:54)
Neighbor list info ...
  update every 1 steps, delay 10 steps, check yes
  max neighbors/atom: 2000, page size: 100000
  master list distance cutoff = 5.5
  ghost atom cutoff = 5.5
  binsize = 2.75, bins = 5 5 6
  4 neighbor lists, perpetual/occasional/extra = 1 3 0
  (1) pair zero, perpetual
      attributes: half, newton on
      pair build: half/bin/atomonly/newton
      stencil: half/bin/3d/newton
      bin: standard
  (2) compute sna/atom, occasional
      attributes: full, newton on
      pair build: full/bin/atomonly
      stencil: full/bin/3d
      bin: standard
  (3) compute snad/atom, occasional
      attributes: full, newton on
      pair build: full/bin/atomonly
      stencil: full/bin/3d
      bin: standard
  (4) compute snav/atom, occasional
      attributes: full, newton on
      pair build: full/bin/atomonly
      stencil: full/bin/3d
      bin: standard
Per MPI rank memory allocation (min/avg/max) = 8.674 | 8.674 | 8.674 Mbytes
PotEng 
           0 
Loop time of 9.53674e-07 on 1 procs for 0 steps with 192 atoms

0.0% CPU use with 1 MPI tasks x 1 OpenMP threads

MPI task timing breakdown:
Section |  min time  |  avg time  |  max time  |%varavg| %total
---------------------------------------------------------------
Pair    | 0          | 0          | 0          |   0.0 |  0.00
Neigh   | 0          | 0          | 0          |   0.0 |  0.00
Comm    | 0          | 0          | 0          |   0.0 |  0.00
Output  | 0          | 0          | 0          |   0.0 |  0.00
Modify  | 0          | 0          | 0          |   0.0 |  0.00
Other   |            | 9.537e-07  |            |       |100.00

Nlocal:        192.000 ave         192 max         192 min
Histogram: 1 0 0 0 0 0 0 0 0 0
Nghost:        1068.00 ave        1068 max        1068 min
Histogram: 1 0 0 0 0 0 0 0 0 0
Neighs:        4906.00 ave        4906 max        4906 min
Histogram: 1 0 0 0 0 0 0 0 0 0
FullNghs:      0.00000 ave           0 max           0 min
Histogram: 1 0 0 0 0 0 0 0 0 0

Total # of neighbors = 4906
Ave neighs/atom = 25.552083
Neighbor list builds = 0
Dangerous builds = 0
clear
OMP_NUM_THREADS environment is not set. Defaulting to 1 thread. (src/comm.cpp:94)
  using 1 OpenMP thread(s) per MPI task
units metal
boundary p p p
atom_style atomic
atom_modify map array
read_data data/19/DATA
Reading data file ...
  orthogonal box = (0.0000000 0.0000000 0.0000000) to (12.990503 11.250148 15.845291)
  1 by 1 by 1 MPI processor grid
  reading atoms ...
  192 atoms
  read_data CPU = 0.000 seconds
pair_style zero 3.5
pair_coeff * *
compute PE all pe
compute S all pressure thermo_temp
compute SNA all sna/atom 3.5 0.99363 6 0.5 0.5 1.0 0.5 rmin0 0.0 bzeroflag 0 quadraticflag 0 switchflag 1
compute SNAD all snad/atom 3.5 0.99363 6 0.5 0.5 1.0 0.5 rmin0 0.0 bzeroflag 0 quadraticflag 0 switchflag 1
compute SNAV all snav/atom 3.5 0.99363 6 0.5 0.5 1.0 0.5 rmin0 0.0 bzeroflag 0 quadraticflag 0 switchflag 1
thermo_style custom pe
dump 2 all custom 100 dump.forces fx fy fz
run 0
WARNING: No fixes defined, atoms won't move (src/verlet.cpp:54)
Neighbor list info ...
  update every 1 steps, delay 10 steps, check yes
  max neighbors/atom: 2000, page size: 100000
  master list distance cutoff = 5.5
  ghost atom cutoff = 5.5
  binsize = 2.75, bins = 5 5 6
  4 neighbor lists, perpetual/occasional/extra = 1 3 0
  (1) pair zero, perpetual
      attributes: half, newton on
      pair build: half/bin/atomonly/newton
      stencil: half/bin/3d/newton
      bin: standard
  (2) compute sna/atom, occasional
      attributes: full, newton on
      pair build: full/bin/atomonly
      stencil: full/bin/3d
      bin: standard
  (3) compute snad/atom, occasional
      attributes: full, newton on
      pair build: full/bin/atomonly
      stencil: full/bin/3d
      bin: standard
  (4) compute snav/atom, occasional
      attributes: full, newton on
      pair build: full/bin/atomonly
      stencil: full/bin/3d
      bin: standard
Per MPI rank memory allocation (min/avg/max) = 8.674 | 8.674 | 8.674 Mbytes
PotEng 
           0 
Loop time of 1.19209e-06 on 1 procs for 0 steps with 192 atoms

0.0% CPU use with 1 MPI tasks x 1 OpenMP threads

MPI task timing breakdown:
Section |  min time  |  avg time  |  max time  |%varavg| %total
---------------------------------------------------------------
Pair    | 0          | 0          | 0          |   0.0 |  0.00
Neigh   | 0          | 0          | 0          |   0.0 |  0.00
Comm    | 0          | 0          | 0          |   0.0 |  0.00
Output  | 0          | 0          | 0          |   0.0 |  0.00
Modify  | 0          | 0          | 0          |   0.0 |  0.00
Other   |            | 1.192e-06  |            |       |100.00

Nlocal:        192.000 ave         192 max         192 min
Histogram: 1 0 0 0 0 0 0 0 0 0
Nghost:        1068.00 ave        1068 max        1068 min
Histogram: 1 0 0 0 0 0 0 0 0 0
Neighs:        4912.00 ave        4912 max        4912 min
Histogram: 1 0 0 0 0 0 0 0 0 0
FullNghs:      0.00000 ave           0 max           0 min
Histogram: 1 0 0 0 0 0 0 0 0 0

Total # of neighbors = 4912
Ave neighs/atom = 25.583333
Neighbor list builds = 0
Dangerous builds = 0
clear
OMP_NUM_THREADS environment is not set. Defaulting to 1 thread. (src/comm.cpp:94)
  using 1 OpenMP thread(s) per MPI task
units metal
boundary p p p
atom_style atomic
atom_modify map array
read_data data/20/DATA
Reading data file ...
  orthogonal box = (0.0000000 0.0000000 0.0000000) to (12.990503 11.250148 15.845291)
  1 by 1 by 1 MPI processor grid
  reading atoms ...
  192 atoms
  read_data CPU = 0.000 seconds
pair_style zero 3.5
pair_coeff * *
compute PE all pe
compute S all pressure thermo_temp
compute SNA all sna/atom 3.5 0.99363 6 0.5 0.5 1.0 0.5 rmin0 0.0 bzeroflag 0 quadraticflag 0 switchflag 1
compute SNAD all snad/atom 3.5 0.99363 6 0.5 0.5 1.0 0.5 rmin0 0.0 bzeroflag 0 quadraticflag 0 switchflag 1
compute SNAV all snav/atom 3.5 0.99363 6 0.5 0.5 1.0 0.5 rmin0 0.0 bzeroflag 0 quadraticflag 0 switchflag 1
thermo_style custom pe
dump 2 all custom 100 dump.forces fx fy fz
run 0
WARNING: No fixes defined, atoms won't move (src/verlet.cpp:54)
Neighbor list info ...
  update every 1 steps, delay 10 steps, check yes
  max neighbors/atom: 2000, page size: 100000
  master list distance cutoff = 5.5
  ghost atom cutoff = 5.5
  binsize = 2.75, bins = 5 5 6
  4 neighbor lists, perpetual/occasional/extra = 1 3 0
  (1) pair zero, perpetual
      attributes: half, newton on
      pair build: half/bin/atomonly/newton
      stencil: half/bin/3d/newton
      bin: standard
  (2) compute sna/atom, occasional
      attributes: full, newton on
      pair build: full/bin/atomonly
      stencil: full/bin/3d
      bin: standard
  (3) compute snad/atom, occasional
      attributes: full, newton on
      pair build: full/bin/atomonly
      stencil: full/bin/3d
      bin: standard
  (4) compute snav/atom, occasional
      attributes: full, newton on
      pair build: full/bin/atomonly
      stencil: full/bin/3d
      bin: standard
Per MPI rank memory allocation (min/avg/max) = 8.691 | 8.691 | 8.691 Mbytes
PotEng 
           0 
Loop time of 9.53674e-07 on 1 procs for 0 steps with 192 atoms

0.0% CPU use with 1 MPI tasks x 1 OpenMP threads

MPI task timing breakdown:
Section |  min time  |  avg time  |  max time  |%varavg| %total
---------------------------------------------------------------
Pair    | 0          | 0          | 0          |   0.0 |  0.00
Neigh   | 0          | 0          | 0          |   0.0 |  0.00
Comm    | 0          | 0          | 0          |   0.0 |  0.00
Output  | 0          | 0          | 0          |   0.0 |  0.00
Modify  | 0          | 0          | 0          |   0.0 |  0.00
Other   |            | 9.537e-07  |            |       |100.00

Nlocal:        192.000 ave         192 max         192 min
Histogram: 1 0 0 0 0 0 0 0 0 0
Nghost:        1068.00 ave        1068 max        1068 min
Histogram: 1 0 0 0 0 0 0 0 0 0
Neighs:        4909.00 ave        4909 max        4909 min
Histogram: 1 0 0 0 0 0 0 0 0 0
FullNghs:      0.00000 ave           0 max           0 min
Histogram: 1 0 0 0 0 0 0 0 0 0

Total # of neighbors = 4909
Ave neighs/atom = 25.567708
Neighbor list builds = 0
Dangerous builds = 0
clear
OMP_NUM_THREADS environment is not set. Defaulting to 1 thread. (src/comm.cpp:94)
  using 1 OpenMP thread(s) per MPI task
units metal
boundary p p p
atom_style atomic
atom_modify map array
read_data data/21/DATA
Reading data file ...
  orthogonal box = (0.0000000 0.0000000 0.0000000) to (12.990503 11.250148 15.845291)
  1 by 1 by 1 MPI processor grid
  reading atoms ...
  192 atoms
  read_data CPU = 0.000 seconds
pair_style zero 3.5
pair_coeff * *
compute PE all pe
compute S all pressure thermo_temp
compute SNA all sna/atom 3.5 0.99363 6 0.5 0.5 1.0 0.5 rmin0 0.0 bzeroflag 0 quadraticflag 0 switchflag 1
compute SNAD all snad/atom 3.5 0.99363 6 0.5 0.5 1.0 0.5 rmin0 0.0 bzeroflag 0 quadraticflag 0 switchflag 1
compute SNAV all snav/atom 3.5 0.99363 6 0.5 0.5 1.0 0.5 rmin0 0.0 bzeroflag 0 quadraticflag 0 switchflag 1
thermo_style custom pe
dump 2 all custom 100 dump.forces fx fy fz
run 0
WARNING: No fixes defined, atoms won't move (src/verlet.cpp:54)
Neighbor list info ...
  update every 1 steps, delay 10 steps, check yes
  max neighbors/atom: 2000, page size: 100000
  master list distance cutoff = 5.5
  ghost atom cutoff = 5.5
  binsize = 2.75, bins = 5 5 6
  4 neighbor lists, perpetual/occasional/extra = 1 3 0
  (1) pair zero, perpetual
      attributes: half, newton on
      pair build: half/bin/atomonly/newton
      stencil: half/bin/3d/newton
      bin: standard
  (2) compute sna/atom, occasional
      attributes: full, newton on
      pair build: full/bin/atomonly
      stencil: full/bin/3d
      bin: standard
  (3) compute snad/atom, occasional
      attributes: full, newton on
      pair build: full/bin/atomonly
      stencil: full/bin/3d
      bin: standard
  (4) compute snav/atom, occasional
      attributes: full, newton on
      pair build: full/bin/atomonly
      stencil: full/bin/3d
      bin: standard
Per MPI rank memory allocation (min/avg/max) = 8.724 | 8.724 | 8.724 Mbytes
PotEng 
           0 
Loop time of 9.53674e-07 on 1 procs for 0 steps with 192 atoms

0.0% CPU use with 1 MPI tasks x 1 OpenMP threads

MPI task timing breakdown:
Section |  min time  |  avg time  |  max time  |%varavg| %total
---------------------------------------------------------------
Pair    | 0          | 0          | 0          |   0.0 |  0.00
Neigh   | 0          | 0          | 0          |   0.0 |  0.00
Comm    | 0          | 0          | 0          |   0.0 |  0.00
Output  | 0          | 0          | 0          |   0.0 |  0.00
Modify  | 0          | 0          | 0          |   0.0 |  0.00
Other   |            | 9.537e-07  |            |       |100.00

Nlocal:        192.000 ave         192 max         192 min
Histogram: 1 0 0 0 0 0 0 0 0 0
Nghost:        1068.00 ave        1068 max        1068 min
Histogram: 1 0 0 0 0 0 0 0 0 0
Neighs:        4904.00 ave        4904 max        4904 min
Histogram: 1 0 0 0 0 0 0 0 0 0
FullNghs:      0.00000 ave           0 max           0 min
Histogram: 1 0 0 0 0 0 0 0 0 0

Total # of neighbors = 4904
Ave neighs/atom = 25.541667
Neighbor list builds = 0
Dangerous builds = 0
clear
OMP_NUM_THREADS environment is not set. Defaulting to 1 thread. (src/comm.cpp:94)
  using 1 OpenMP thread(s) per MPI task
units metal
boundary p p p
atom_style atomic
atom_modify map array
read_data data/22/DATA
Reading data file ...
  orthogonal box = (0.0000000 0.0000000 0.0000000) to (12.990503 11.250148 15.845291)
  1 by 1 by 1 MPI processor grid
  reading atoms ...
  192 atoms
  read_data CPU = 0.000 seconds
pair_style zero 3.5
pair_coeff * *
compute PE all pe
compute S all pressure thermo_temp
compute SNA all sna/atom 3.5 0.99363 6 0.5 0.5 1.0 0.5 rmin0 0.0 bzeroflag 0 quadraticflag 0 switchflag 1
compute SNAD all snad/atom 3.5 0.99363 6 0.5 0.5 1.0 0.5 rmin0 0.0 bzeroflag 0 quadraticflag 0 switchflag 1
compute SNAV all snav/atom 3.5 0.99363 6 0.5 0.5 1.0 0.5 rmin0 0.0 bzeroflag 0 quadraticflag 0 switchflag 1
thermo_style custom pe
dump 2 all custom 100 dump.forces fx fy fz
run 0
WARNING: No fixes defined, atoms won't move (src/verlet.cpp:54)
Neighbor list info ...
  update every 1 steps, delay 10 steps, check yes
  max neighbors/atom: 2000, page size: 100000
  master list distance cutoff = 5.5
  ghost atom cutoff = 5.5
  binsize = 2.75, bins = 5 5 6
  4 neighbor lists, perpetual/occasional/extra = 1 3 0
  (1) pair zero, perpetual
      attributes: half, newton on
      pair build: half/bin/atomonly/newton
      stencil: half/bin/3d/newton
      bin: standard
  (2) compute sna/atom, occasional
      attributes: full, newton on
      pair build: full/bin/atomonly
      stencil: full/bin/3d
      bin: standard
  (3) compute snad/atom, occasional
      attributes: full, newton on
      pair build: full/bin/atomonly
      stencil: full/bin/3d
      bin: standard
  (4) compute snav/atom, occasional
      attributes: full, newton on
      pair build: full/bin/atomonly
      stencil: full/bin/3d
      bin: standard
Per MPI rank memory allocation (min/avg/max) = 8.674 | 8.674 | 8.674 Mbytes
PotEng 
           0 
Loop time of 1.19209e-06 on 1 procs for 0 steps with 192 atoms

0.0% CPU use with 1 MPI tasks x 1 OpenMP threads

MPI task timing breakdown:
Section |  min time  |  avg time  |  max time  |%varavg| %total
---------------------------------------------------------------
Pair    | 0          | 0          | 0          |   0.0 |  0.00
Neigh   | 0          | 0          | 0          |   0.0 |  0.00
Comm    | 0          | 0          | 0          |   0.0 |  0.00
Output  | 0          | 0          | 0          |   0.0 |  0.00
Modify  | 0          | 0          | 0          |   0.0 |  0.00
Other   |            | 1.192e-06  |            |       |100.00

Nlocal:        192.000 ave         192 max         192 min
Histogram: 1 0 0 0 0 0 0 0 0 0
Nghost:        1068.00 ave        1068 max        1068 min
Histogram: 1 0 0 0 0 0 0 0 0 0
Neighs:        4912.00 ave        4912 max        4912 min
Histogram: 1 0 0 0 0 0 0 0 0 0
FullNghs:      0.00000 ave           0 max           0 min
Histogram: 1 0 0 0 0 0 0 0 0 0

Total # of neighbors = 4912
Ave neighs/atom = 25.583333
Neighbor list builds = 0
Dangerous builds = 0
clear
OMP_NUM_THREADS environment is not set. Defaulting to 1 thread. (src/comm.cpp:94)
  using 1 OpenMP thread(s) per MPI task
units metal
boundary p p p
atom_style atomic
atom_modify map array
read_data data/23/DATA
Reading data file ...
  orthogonal box = (0.0000000 0.0000000 0.0000000) to (12.990503 11.250148 15.845291)
  1 by 1 by 1 MPI processor grid
  reading atoms ...
  192 atoms
  read_data CPU = 0.000 seconds
pair_style zero 3.5
pair_coeff * *
compute PE all pe
compute S all pressure thermo_temp
compute SNA all sna/atom 3.5 0.99363 6 0.5 0.5 1.0 0.5 rmin0 0.0 bzeroflag 0 quadraticflag 0 switchflag 1
compute SNAD all snad/atom 3.5 0.99363 6 0.5 0.5 1.0 0.5 rmin0 0.0 bzeroflag 0 quadraticflag 0 switchflag 1
compute SNAV all snav/atom 3.5 0.99363 6 0.5 0.5 1.0 0.5 rmin0 0.0 bzeroflag 0 quadraticflag 0 switchflag 1
thermo_style custom pe
dump 2 all custom 100 dump.forces fx fy fz
run 0
WARNING: No fixes defined, atoms won't move (src/verlet.cpp:54)
Neighbor list info ...
  update every 1 steps, delay 10 steps, check yes
  max neighbors/atom: 2000, page size: 100000
  master list distance cutoff = 5.5
  ghost atom cutoff = 5.5
  binsize = 2.75, bins = 5 5 6
  4 neighbor lists, perpetual/occasional/extra = 1 3 0
  (1) pair zero, perpetual
      attributes: half, newton on
      pair build: half/bin/atomonly/newton
      stencil: half/bin/3d/newton
      bin: standard
  (2) compute sna/atom, occasional
      attributes: full, newton on
      pair build: full/bin/atomonly
      stencil: full/bin/3d
      bin: standard
  (3) compute snad/atom, occasional
      attributes: full, newton on
      pair build: full/bin/atomonly
      stencil: full/bin/3d
      bin: standard
  (4) compute snav/atom, occasional
      attributes: full, newton on
      pair build: full/bin/atomonly
      stencil: full/bin/3d
      bin: standard
Per MPI rank memory allocation (min/avg/max) = 8.674 | 8.674 | 8.674 Mbytes
PotEng 
           0 
Loop time of 9.53674e-07 on 1 procs for 0 steps with 192 atoms

0.0% CPU use with 1 MPI tasks x 1 OpenMP threads

MPI task timing breakdown:
Section |  min time  |  avg time  |  max time  |%varavg| %total
---------------------------------------------------------------
Pair    | 0          | 0          | 0          |   0.0 |  0.00
Neigh   | 0          | 0          | 0          |   0.0 |  0.00
Comm    | 0          | 0          | 0          |   0.0 |  0.00
Output  | 0          | 0          | 0          |   0.0 |  0.00
Modify  | 0          | 0          | 0          |   0.0 |  0.00
Other   |            | 9.537e-07  |            |       |100.00

Nlocal:        192.000 ave         192 max         192 min
Histogram: 1 0 0 0 0 0 0 0 0 0
Nghost:        1068.00 ave        1068 max        1068 min
Histogram: 1 0 0 0 0 0 0 0 0 0
Neighs:        4909.00 ave        4909 max        4909 min
Histogram: 1 0 0 0 0 0 0 0 0 0
FullNghs:      0.00000 ave           0 max           0 min
Histogram: 1 0 0 0 0 0 0 0 0 0

Total # of neighbors = 4909
Ave neighs/atom = 25.567708
Neighbor list builds = 0
Dangerous builds = 0
clear
OMP_NUM_THREADS environment is not set. Defaulting to 1 thread. (src/comm.cpp:94)
  using 1 OpenMP thread(s) per MPI task
units metal
boundary p p p
atom_style atomic
atom_modify map array
read_data data/24/DATA
Reading data file ...
  orthogonal box = (0.0000000 0.0000000 0.0000000) to (12.990503 11.250148 15.845291)
  1 by 1 by 1 MPI processor grid
  reading atoms ...
  192 atoms
  read_data CPU = 0.001 seconds
pair_style zero 3.5
pair_coeff * *
compute PE all pe
compute S all pressure thermo_temp
compute SNA all sna/atom 3.5 0.99363 6 0.5 0.5 1.0 0.5 rmin0 0.0 bzeroflag 0 quadraticflag 0 switchflag 1
compute SNAD all snad/atom 3.5 0.99363 6 0.5 0.5 1.0 0.5 rmin0 0.0 bzeroflag 0 quadraticflag 0 switchflag 1
compute SNAV all snav/atom 3.5 0.99363 6 0.5 0.5 1.0 0.5 rmin0 0.0 bzeroflag 0 quadraticflag 0 switchflag 1
thermo_style custom pe
dump 2 all custom 100 dump.forces fx fy fz
run 0
WARNING: No fixes defined, atoms won't move (src/verlet.cpp:54)
Neighbor list info ...
  update every 1 steps, delay 10 steps, check yes
  max neighbors/atom: 2000, page size: 100000
  master list distance cutoff = 5.5
  ghost atom cutoff = 5.5
  binsize = 2.75, bins = 5 5 6
  4 neighbor lists, perpetual/occasional/extra = 1 3 0
  (1) pair zero, perpetual
      attributes: half, newton on
      pair build: half/bin/atomonly/newton
      stencil: half/bin/3d/newton
      bin: standard
  (2) compute sna/atom, occasional
      attributes: full, newton on
      pair build: full/bin/atomonly
      stencil: full/bin/3d
      bin: standard
  (3) compute snad/atom, occasional
      attributes: full, newton on
      pair build: full/bin/atomonly
      stencil: full/bin/3d
      bin: standard
  (4) compute snav/atom, occasional
      attributes: full, newton on
      pair build: full/bin/atomonly
      stencil: full/bin/3d
      bin: standard
Per MPI rank memory allocation (min/avg/max) = 8.707 | 8.707 | 8.707 Mbytes
PotEng 
           0 
Loop time of 2.14577e-06 on 1 procs for 0 steps with 192 atoms

0.0% CPU use with 1 MPI tasks x 1 OpenMP threads

MPI task timing breakdown:
Section |  min time  |  avg time  |  max time  |%varavg| %total
---------------------------------------------------------------
Pair    | 0          | 0          | 0          |   0.0 |  0.00
Neigh   | 0          | 0          | 0          |   0.0 |  0.00
Comm    | 0          | 0          | 0          |   0.0 |  0.00
Output  | 0          | 0          | 0          |   0.0 |  0.00
Modify  | 0          | 0          | 0          |   0.0 |  0.00
Other   |            | 2.146e-06  |            |       |100.00

Nlocal:        192.000 ave         192 max         192 min
Histogram: 1 0 0 0 0 0 0 0 0 0
Nghost:        1068.00 ave        1068 max        1068 min
Histogram: 1 0 0 0 0 0 0 0 0 0
Neighs:        4888.00 ave        4888 max        4888 min
Histogram: 1 0 0 0 0 0 0 0 0 0
FullNghs:      0.00000 ave           0 max           0 min
Histogram: 1 0 0 0 0 0 0 0 0 0

Total # of neighbors = 4888
Ave neighs/atom = 25.458333
Neighbor list builds = 0
Dangerous builds = 0
clear
OMP_NUM_THREADS environment is not set. Defaulting to 1 thread. (src/comm.cpp:94)
  using 1 OpenMP thread(s) per MPI task
units metal
boundary p p p
atom_style atomic
atom_modify map array
read_data data/25/DATA
Reading data file ...
  orthogonal box = (0.0000000 0.0000000 0.0000000) to (12.990503 11.250148 15.845291)
  1 by 1 by 1 MPI processor grid
  reading atoms ...
  192 atoms
  read_data CPU = 0.000 seconds
pair_style zero 3.5
pair_coeff * *
compute PE all pe
compute S all pressure thermo_temp
compute SNA all sna/atom 3.5 0.99363 6 0.5 0.5 1.0 0.5 rmin0 0.0 bzeroflag 0 quadraticflag 0 switchflag 1
compute SNAD all snad/atom 3.5 0.99363 6 0.5 0.5 1.0 0.5 rmin0 0.0 bzeroflag 0 quadraticflag 0 switchflag 1
compute SNAV all snav/atom 3.5 0.99363 6 0.5 0.5 1.0 0.5 rmin0 0.0 bzeroflag 0 quadraticflag 0 switchflag 1
thermo_style custom pe
dump 2 all custom 100 dump.forces fx fy fz
run 0
WARNING: No fixes defined, atoms won't move (src/verlet.cpp:54)
Neighbor list info ...
  update every 1 steps, delay 10 steps, check yes
  max neighbors/atom: 2000, page size: 100000
  master list distance cutoff = 5.5
  ghost atom cutoff = 5.5
  binsize = 2.75, bins = 5 5 6
  4 neighbor lists, perpetual/occasional/extra = 1 3 0
  (1) pair zero, perpetual
      attributes: half, newton on
      pair build: half/bin/atomonly/newton
      stencil: half/bin/3d/newton
      bin: standard
  (2) compute sna/atom, occasional
      attributes: full, newton on
      pair build: full/bin/atomonly
      stencil: full/bin/3d
      bin: standard
  (3) compute snad/atom, occasional
      attributes: full, newton on
      pair build: full/bin/atomonly
      stencil: full/bin/3d
      bin: standard
  (4) compute snav/atom, occasional
      attributes: full, newton on
      pair build: full/bin/atomonly
      stencil: full/bin/3d
      bin: standard
Per MPI rank memory allocation (min/avg/max) = 8.658 | 8.658 | 8.658 Mbytes
PotEng 
           0 
Loop time of 9.53674e-07 on 1 procs for 0 steps with 192 atoms

0.0% CPU use with 1 MPI tasks x 1 OpenMP threads

MPI task timing breakdown:
Section |  min time  |  avg time  |  max time  |%varavg| %total
---------------------------------------------------------------
Pair    | 0          | 0          | 0          |   0.0 |  0.00
Neigh   | 0          | 0          | 0          |   0.0 |  0.00
Comm    | 0          | 0          | 0          |   0.0 |  0.00
Output  | 0          | 0          | 0          |   0.0 |  0.00
Modify  | 0          | 0          | 0          |   0.0 |  0.00
Other   |            | 9.537e-07  |            |       |100.00

Nlocal:        192.000 ave         192 max         192 min
Histogram: 1 0 0 0 0 0 0 0 0 0
Nghost:        1068.00 ave        1068 max        1068 min
Histogram: 1 0 0 0 0 0 0 0 0 0
Neighs:        4895.00 ave        4895 max        4895 min
Histogram: 1 0 0 0 0 0 0 0 0 0
FullNghs:      0.00000 ave           0 max           0 min
Histogram: 1 0 0 0 0 0 0 0 0 0

Total # of neighbors = 4895
Ave neighs/atom = 25.494792
Neighbor list builds = 0
Dangerous builds = 0
clear
OMP_NUM_THREADS environment is not set. Defaulting to 1 thread. (src/comm.cpp:94)
  using 1 OpenMP thread(s) per MPI task
units metal
boundary p p p
atom_style atomic
atom_modify map array
read_data data/26/DATA
Reading data file ...
  orthogonal box = (0.0000000 0.0000000 0.0000000) to (12.990503 11.250148 15.845291)
  1 by 1 by 1 MPI processor grid
  reading atoms ...
  192 atoms
  read_data CPU = 0.000 seconds
pair_style zero 3.5
pair_coeff * *
compute PE all pe
compute S all pressure thermo_temp
compute SNA all sna/atom 3.5 0.99363 6 0.5 0.5 1.0 0.5 rmin0 0.0 bzeroflag 0 quadraticflag 0 switchflag 1
compute SNAD all snad/atom 3.5 0.99363 6 0.5 0.5 1.0 0.5 rmin0 0.0 bzeroflag 0 quadraticflag 0 switchflag 1
compute SNAV all snav/atom 3.5 0.99363 6 0.5 0.5 1.0 0.5 rmin0 0.0 bzeroflag 0 quadraticflag 0 switchflag 1
thermo_style custom pe
dump 2 all custom 100 dump.forces fx fy fz
run 0
WARNING: No fixes defined, atoms won't move (src/verlet.cpp:54)
Neighbor list info ...
  update every 1 steps, delay 10 steps, check yes
  max neighbors/atom: 2000, page size: 100000
  master list distance cutoff = 5.5
  ghost atom cutoff = 5.5
  binsize = 2.75, bins = 5 5 6
  4 neighbor lists, perpetual/occasional/extra = 1 3 0
  (1) pair zero, perpetual
      attributes: half, newton on
      pair build: half/bin/atomonly/newton
      stencil: half/bin/3d/newton
      bin: standard
  (2) compute sna/atom, occasional
      attributes: full, newton on
      pair build: full/bin/atomonly
      stencil: full/bin/3d
      bin: standard
  (3) compute snad/atom, occasional
      attributes: full, newton on
      pair build: full/bin/atomonly
      stencil: full/bin/3d
      bin: standard
  (4) compute snav/atom, occasional
      attributes: full, newton on
      pair build: full/bin/atomonly
      stencil: full/bin/3d
      bin: standard
Per MPI rank memory allocation (min/avg/max) = 8.674 | 8.674 | 8.674 Mbytes
PotEng 
           0 
Loop time of 9.53674e-07 on 1 procs for 0 steps with 192 atoms

0.0% CPU use with 1 MPI tasks x 1 OpenMP threads

MPI task timing breakdown:
Section |  min time  |  avg time  |  max time  |%varavg| %total
---------------------------------------------------------------
Pair    | 0          | 0          | 0          |   0.0 |  0.00
Neigh   | 0          | 0          | 0          |   0.0 |  0.00
Comm    | 0          | 0          | 0          |   0.0 |  0.00
Output  | 0          | 0          | 0          |   0.0 |  0.00
Modify  | 0          | 0          | 0          |   0.0 |  0.00
Other   |            | 9.537e-07  |            |       |100.00

Nlocal:        192.000 ave         192 max         192 min
Histogram: 1 0 0 0 0 0 0 0 0 0
Nghost:        1068.00 ave        1068 max        1068 min
Histogram: 1 0 0 0 0 0 0 0 0 0
Neighs:        4923.00 ave        4923 max        4923 min
Histogram: 1 0 0 0 0 0 0 0 0 0
FullNghs:      0.00000 ave           0 max           0 min
Histogram: 1 0 0 0 0 0 0 0 0 0

Total # of neighbors = 4923
Ave neighs/atom = 25.640625
Neighbor list builds = 0
Dangerous builds = 0
clear
OMP_NUM_THREADS environment is not set. Defaulting to 1 thread. (src/comm.cpp:94)
  using 1 OpenMP thread(s) per MPI task
units metal
boundary p p p
atom_style atomic
atom_modify map array
read_data data/27/DATA
Reading data file ...
  orthogonal box = (0.0000000 0.0000000 0.0000000) to (12.990503 11.250148 15.845291)
  1 by 1 by 1 MPI processor grid
  reading atoms ...
  192 atoms
  read_data CPU = 0.000 seconds
[...]
      attributes: full, newton on
      pair build: full/bin/atomonly
      stencil: full/bin/3d
      bin: standard
  (4) compute snav/atom, occasional
      attributes: full, newton on
      pair build: full/bin/atomonly
      stencil: full/bin/3d
      bin: standard
Per MPI rank memory allocation (min/avg/max) = 8.691 | 8.691 | 8.691 Mbytes
PotEng 
           0 
Loop time of 1.19209e-06 on 1 procs for 0 steps with 192 atoms

0.0% CPU use with 1 MPI tasks x 1 OpenMP threads

MPI task timing breakdown:
Section |  min time  |  avg time  |  max time  |%varavg| %total
---------------------------------------------------------------
Pair    | 0          | 0          | 0          |   0.0 |  0.00
Neigh   | 0          | 0          | 0          |   0.0 |  0.00
Comm    | 0          | 0          | 0          |   0.0 |  0.00
Output  | 0          | 0          | 0          |   0.0 |  0.00
Modify  | 0          | 0          | 0          |   0.0 |  0.00
Other   |            | 1.192e-06  |            |       |100.00

Nlocal:        192.000 ave         192 max         192 min
Histogram: 1 0 0 0 0 0 0 0 0 0
Nghost:        1068.00 ave        1068 max        1068 min
Histogram: 1 0 0 0 0 0 0 0 0 0
Neighs:        4897.00 ave        4897 max        4897 min
Histogram: 1 0 0 0 0 0 0 0 0 0
FullNghs:      0.00000 ave           0 max           0 min
Histogram: 1 0 0 0 0 0 0 0 0 0

Total # of neighbors = 4897
Ave neighs/atom = 25.505208
Neighbor list builds = 0
Dangerous builds = 0
clear
OMP_NUM_THREADS environment is not set. Defaulting to 1 thread. (src/comm.cpp:94)
  using 1 OpenMP thread(s) per MPI task
units metal
boundary p p p
atom_style atomic
atom_modify map array
read_data data/43/DATA
Reading data file ...
  orthogonal box = (0.0000000 0.0000000 0.0000000) to (12.990503 11.250148 15.845291)
  1 by 1 by 1 MPI processor grid
  reading atoms ...
  192 atoms
  read_data CPU = 0.000 seconds
pair_style zero 3.5
pair_coeff * *
compute PE all pe
compute S all pressure thermo_temp
compute SNA all sna/atom 3.5 0.99363 6 0.5 0.5 1.0 0.5 rmin0 0.0 bzeroflag 0 quadraticflag 0 switchflag 1
compute SNAD all snad/atom 3.5 0.99363 6 0.5 0.5 1.0 0.5 rmin0 0.0 bzeroflag 0 quadraticflag 0 switchflag 1
compute SNAV all snav/atom 3.5 0.99363 6 0.5 0.5 1.0 0.5 rmin0 0.0 bzeroflag 0 quadraticflag 0 switchflag 1
thermo_style custom pe
dump 2 all custom 100 dump.forces fx fy fz
run 0
WARNING: No fixes defined, atoms won't move (src/verlet.cpp:54)
Neighbor list info ...
  update every 1 steps, delay 10 steps, check yes
  max neighbors/atom: 2000, page size: 100000
  master list distance cutoff = 5.5
  ghost atom cutoff = 5.5
  binsize = 2.75, bins = 5 5 6
  4 neighbor lists, perpetual/occasional/extra = 1 3 0
  (1) pair zero, perpetual
      attributes: half, newton on
      pair build: half/bin/atomonly/newton
      stencil: half/bin/3d/newton
      bin: standard
  (2) compute sna/atom, occasional
      attributes: full, newton on
      pair build: full/bin/atomonly
      stencil: full/bin/3d
      bin: standard
  (3) compute snad/atom, occasional
      attributes: full, newton on
      pair build: full/bin/atomonly
      stencil: full/bin/3d
      bin: standard
  (4) compute snav/atom, occasional
      attributes: full, newton on
      pair build: full/bin/atomonly
      stencil: full/bin/3d
      bin: standard
Per MPI rank memory allocation (min/avg/max) = 8.691 | 8.691 | 8.691 Mbytes
PotEng 
           0 
Loop time of 0 on 1 procs for 0 steps with 192 atoms

0.0% CPU use with 1 MPI tasks x 1 OpenMP threads

MPI task timing breakdown:
Section |  min time  |  avg time  |  max time  |%varavg| %total
---------------------------------------------------------------
Pair    | 0          | 0          | 0          |   0.0 |  0.00
Neigh   | 0          | 0          | 0          |   0.0 |  0.00
Comm    | 0          | 0          | 0          |   0.0 |  0.00
Output  | 0          | 0          | 0          |   0.0 |  0.00
Modify  | 0          | 0          | 0          |   0.0 |  0.00
Other   |            | 0          |            |       |  0.00

Nlocal:        192.000 ave         192 max         192 min
Histogram: 1 0 0 0 0 0 0 0 0 0
Nghost:        1068.00 ave        1068 max        1068 min
Histogram: 1 0 0 0 0 0 0 0 0 0
Neighs:        4893.00 ave        4893 max        4893 min
Histogram: 1 0 0 0 0 0 0 0 0 0
FullNghs:      0.00000 ave           0 max           0 min
Histogram: 1 0 0 0 0 0 0 0 0 0

Total # of neighbors = 4893
Ave neighs/atom = 25.484375
Neighbor list builds = 0
Dangerous builds = 0
clear
OMP_NUM_THREADS environment is not set. Defaulting to 1 thread. (src/comm.cpp:94)
  using 1 OpenMP thread(s) per MPI task
units metal
boundary p p p
atom_style atomic
atom_modify map array
read_data data/44/DATA
Reading data file ...
  orthogonal box = (0.0000000 0.0000000 0.0000000) to (12.990503 11.250148 15.845291)
  1 by 1 by 1 MPI processor grid
  reading atoms ...
  192 atoms
  read_data CPU = 0.000 seconds
pair_style zero 3.5
pair_coeff * *
compute PE all pe
compute S all pressure thermo_temp
compute SNA all sna/atom 3.5 0.99363 6 0.5 0.5 1.0 0.5 rmin0 0.0 bzeroflag 0 quadraticflag 0 switchflag 1
compute SNAD all snad/atom 3.5 0.99363 6 0.5 0.5 1.0 0.5 rmin0 0.0 bzeroflag 0 quadraticflag 0 switchflag 1
compute SNAV all snav/atom 3.5 0.99363 6 0.5 0.5 1.0 0.5 rmin0 0.0 bzeroflag 0 quadraticflag 0 switchflag 1
thermo_style custom pe
dump 2 all custom 100 dump.forces fx fy fz
run 0
WARNING: No fixes defined, atoms won't move (src/verlet.cpp:54)
Neighbor list info ...
  update every 1 steps, delay 10 steps, check yes
  max neighbors/atom: 2000, page size: 100000
  master list distance cutoff = 5.5
  ghost atom cutoff = 5.5
  binsize = 2.75, bins = 5 5 6
  4 neighbor lists, perpetual/occasional/extra = 1 3 0
  (1) pair zero, perpetual
      attributes: half, newton on
      pair build: half/bin/atomonly/newton
      stencil: half/bin/3d/newton
      bin: standard
  (2) compute sna/atom, occasional
      attributes: full, newton on
      pair build: full/bin/atomonly
      stencil: full/bin/3d
      bin: standard
  (3) compute snad/atom, occasional
      attributes: full, newton on
      pair build: full/bin/atomonly
      stencil: full/bin/3d
      bin: standard
  (4) compute snav/atom, occasional
      attributes: full, newton on
      pair build: full/bin/atomonly
      stencil: full/bin/3d
      bin: standard
Per MPI rank memory allocation (min/avg/max) = 8.641 | 8.641 | 8.641 Mbytes
PotEng 
           0 
Loop time of 9.53674e-07 on 1 procs for 0 steps with 192 atoms

0.0% CPU use with 1 MPI tasks x 1 OpenMP threads

MPI task timing breakdown:
Section |  min time  |  avg time  |  max time  |%varavg| %total
---------------------------------------------------------------
Pair    | 0          | 0          | 0          |   0.0 |  0.00
Neigh   | 0          | 0          | 0          |   0.0 |  0.00
Comm    | 0          | 0          | 0          |   0.0 |  0.00
Output  | 0          | 0          | 0          |   0.0 |  0.00
Modify  | 0          | 0          | 0          |   0.0 |  0.00
Other   |            | 9.537e-07  |            |       |100.00

Nlocal:        192.000 ave         192 max         192 min
Histogram: 1 0 0 0 0 0 0 0 0 0
Nghost:        1068.00 ave        1068 max        1068 min
Histogram: 1 0 0 0 0 0 0 0 0 0
Neighs:        4910.00 ave        4910 max        4910 min
Histogram: 1 0 0 0 0 0 0 0 0 0
FullNghs:      0.00000 ave           0 max           0 min
Histogram: 1 0 0 0 0 0 0 0 0 0

Total # of neighbors = 4910
Ave neighs/atom = 25.572917
Neighbor list builds = 0
Dangerous builds = 0
clear
OMP_NUM_THREADS environment is not set. Defaulting to 1 thread. (src/comm.cpp:94)
  using 1 OpenMP thread(s) per MPI task
units metal
boundary p p p
atom_style atomic
atom_modify map array
read_data data/45/DATA
Reading data file ...
  orthogonal box = (0.0000000 0.0000000 0.0000000) to (12.990503 11.250148 15.845291)
  1 by 1 by 1 MPI processor grid
  reading atoms ...
  192 atoms
  read_data CPU = 0.001 seconds
pair_style zero 3.5
pair_coeff * *
compute PE all pe
compute S all pressure thermo_temp
compute SNA all sna/atom 3.5 0.99363 6 0.5 0.5 1.0 0.5 rmin0 0.0 bzeroflag 0 quadraticflag 0 switchflag 1
compute SNAD all snad/atom 3.5 0.99363 6 0.5 0.5 1.0 0.5 rmin0 0.0 bzeroflag 0 quadraticflag 0 switchflag 1
compute SNAV all snav/atom 3.5 0.99363 6 0.5 0.5 1.0 0.5 rmin0 0.0 bzeroflag 0 quadraticflag 0 switchflag 1
thermo_style custom pe
dump 2 all custom 100 dump.forces fx fy fz
run 0
WARNING: No fixes defined, atoms won't move (src/verlet.cpp:54)
Neighbor list info ...
  update every 1 steps, delay 10 steps, check yes
  max neighbors/atom: 2000, page size: 100000
  master list distance cutoff = 5.5
  ghost atom cutoff = 5.5
  binsize = 2.75, bins = 5 5 6
  4 neighbor lists, perpetual/occasional/extra = 1 3 0
  (1) pair zero, perpetual
      attributes: half, newton on
      pair build: half/bin/atomonly/newton
      stencil: half/bin/3d/newton
      bin: standard
  (2) compute sna/atom, occasional
      attributes: full, newton on
      pair build: full/bin/atomonly
      stencil: full/bin/3d
      bin: standard
  (3) compute snad/atom, occasional
      attributes: full, newton on
      pair build: full/bin/atomonly
      stencil: full/bin/3d
      bin: standard
  (4) compute snav/atom, occasional
      attributes: full, newton on
      pair build: full/bin/atomonly
      stencil: full/bin/3d
      bin: standard
Per MPI rank memory allocation (min/avg/max) = 8.691 | 8.691 | 8.691 Mbytes
PotEng 
           0 
Loop time of 9.53674e-07 on 1 procs for 0 steps with 192 atoms

0.0% CPU use with 1 MPI tasks x 1 OpenMP threads

MPI task timing breakdown:
Section |  min time  |  avg time  |  max time  |%varavg| %total
---------------------------------------------------------------
Pair    | 0          | 0          | 0          |   0.0 |  0.00
Neigh   | 0          | 0          | 0          |   0.0 |  0.00
Comm    | 0          | 0          | 0          |   0.0 |  0.00
Output  | 0          | 0          | 0          |   0.0 |  0.00
Modify  | 0          | 0          | 0          |   0.0 |  0.00
Other   |            | 9.537e-07  |            |       |100.00

Nlocal:        192.000 ave         192 max         192 min
Histogram: 1 0 0 0 0 0 0 0 0 0
Nghost:        1068.00 ave        1068 max        1068 min
Histogram: 1 0 0 0 0 0 0 0 0 0
Neighs:        4908.00 ave        4908 max        4908 min
Histogram: 1 0 0 0 0 0 0 0 0 0
FullNghs:      0.00000 ave           0 max           0 min
Histogram: 1 0 0 0 0 0 0 0 0 0

Total # of neighbors = 4908
Ave neighs/atom = 25.562500
Neighbor list builds = 0
Dangerous builds = 0
clear
OMP_NUM_THREADS environment is not set. Defaulting to 1 thread. (src/comm.cpp:94)
  using 1 OpenMP thread(s) per MPI task
units metal
boundary p p p
atom_style atomic
atom_modify map array
read_data data/46/DATA
Reading data file ...
  orthogonal box = (0.0000000 0.0000000 0.0000000) to (12.990503 11.250148 15.845291)
  1 by 1 by 1 MPI processor grid
  reading atoms ...
  192 atoms
  read_data CPU = 0.000 seconds
pair_style zero 3.5
pair_coeff * *
compute PE all pe
compute S all pressure thermo_temp
compute SNA all sna/atom 3.5 0.99363 6 0.5 0.5 1.0 0.5 rmin0 0.0 bzeroflag 0 quadraticflag 0 switchflag 1
compute SNAD all snad/atom 3.5 0.99363 6 0.5 0.5 1.0 0.5 rmin0 0.0 bzeroflag 0 quadraticflag 0 switchflag 1
compute SNAV all snav/atom 3.5 0.99363 6 0.5 0.5 1.0 0.5 rmin0 0.0 bzeroflag 0 quadraticflag 0 switchflag 1
thermo_style custom pe
dump 2 all custom 100 dump.forces fx fy fz
run 0
WARNING: No fixes defined, atoms won't move (src/verlet.cpp:54)
Neighbor list info ...
  update every 1 steps, delay 10 steps, check yes
  max neighbors/atom: 2000, page size: 100000
  master list distance cutoff = 5.5
  ghost atom cutoff = 5.5
  binsize = 2.75, bins = 5 5 6
  4 neighbor lists, perpetual/occasional/extra = 1 3 0
  (1) pair zero, perpetual
      attributes: half, newton on
      pair build: half/bin/atomonly/newton
      stencil: half/bin/3d/newton
      bin: standard
  (2) compute sna/atom, occasional
      attributes: full, newton on
      pair build: full/bin/atomonly
      stencil: full/bin/3d
      bin: standard
  (3) compute snad/atom, occasional
      attributes: full, newton on
      pair build: full/bin/atomonly
      stencil: full/bin/3d
      bin: standard
  (4) compute snav/atom, occasional
      attributes: full, newton on
      pair build: full/bin/atomonly
      stencil: full/bin/3d
      bin: standard
Per MPI rank memory allocation (min/avg/max) = 8.658 | 8.658 | 8.658 Mbytes
PotEng 
           0 
Loop time of 9.53674e-07 on 1 procs for 0 steps with 192 atoms

0.0% CPU use with 1 MPI tasks x 1 OpenMP threads

MPI task timing breakdown:
Section |  min time  |  avg time  |  max time  |%varavg| %total
---------------------------------------------------------------
Pair    | 0          | 0          | 0          |   0.0 |  0.00
Neigh   | 0          | 0          | 0          |   0.0 |  0.00
Comm    | 0          | 0          | 0          |   0.0 |  0.00
Output  | 0          | 0          | 0          |   0.0 |  0.00
Modify  | 0          | 0          | 0          |   0.0 |  0.00
Other   |            | 9.537e-07  |            |       |100.00

Nlocal:        192.000 ave         192 max         192 min
Histogram: 1 0 0 0 0 0 0 0 0 0
Nghost:        1068.00 ave        1068 max        1068 min
Histogram: 1 0 0 0 0 0 0 0 0 0
Neighs:        4917.00 ave        4917 max        4917 min
Histogram: 1 0 0 0 0 0 0 0 0 0
FullNghs:      0.00000 ave           0 max           0 min
Histogram: 1 0 0 0 0 0 0 0 0 0

Total # of neighbors = 4917
Ave neighs/atom = 25.609375
Neighbor list builds = 0
Dangerous builds = 0
clear
OMP_NUM_THREADS environment is not set. Defaulting to 1 thread. (src/comm.cpp:94)
  using 1 OpenMP thread(s) per MPI task
units metal
boundary p p p
atom_style atomic
atom_modify map array
read_data data/47/DATA
Reading data file ...
  orthogonal box = (0.0000000 0.0000000 0.0000000) to (12.990503 11.250148 15.845291)
  1 by 1 by 1 MPI processor grid
  reading atoms ...
  192 atoms
  read_data CPU = 0.000 seconds
pair_style zero 3.5
pair_coeff * *
compute PE all pe
compute S all pressure thermo_temp
compute SNA all sna/atom 3.5 0.99363 6 0.5 0.5 1.0 0.5 rmin0 0.0 bzeroflag 0 quadraticflag 0 switchflag 1
compute SNAD all snad/atom 3.5 0.99363 6 0.5 0.5 1.0 0.5 rmin0 0.0 bzeroflag 0 quadraticflag 0 switchflag 1
compute SNAV all snav/atom 3.5 0.99363 6 0.5 0.5 1.0 0.5 rmin0 0.0 bzeroflag 0 quadraticflag 0 switchflag 1
thermo_style custom pe
dump 2 all custom 100 dump.forces fx fy fz
run 0
WARNING: No fixes defined, atoms won't move (src/verlet.cpp:54)
Neighbor list info ...
  update every 1 steps, delay 10 steps, check yes
  max neighbors/atom: 2000, page size: 100000
  master list distance cutoff = 5.5
  ghost atom cutoff = 5.5
  binsize = 2.75, bins = 5 5 6
  4 neighbor lists, perpetual/occasional/extra = 1 3 0
  (1) pair zero, perpetual
      attributes: half, newton on
      pair build: half/bin/atomonly/newton
      stencil: half/bin/3d/newton
      bin: standard
  (2) compute sna/atom, occasional
      attributes: full, newton on
      pair build: full/bin/atomonly
      stencil: full/bin/3d
      bin: standard
  (3) compute snad/atom, occasional
      attributes: full, newton on
      pair build: full/bin/atomonly
      stencil: full/bin/3d
      bin: standard
  (4) compute snav/atom, occasional
      attributes: full, newton on
      pair build: full/bin/atomonly
      stencil: full/bin/3d
      bin: standard
Per MPI rank memory allocation (min/avg/max) = 8.658 | 8.658 | 8.658 Mbytes
PotEng 
           0 
Loop time of 9.53674e-07 on 1 procs for 0 steps with 192 atoms

0.0% CPU use with 1 MPI tasks x 1 OpenMP threads

MPI task timing breakdown:
Section |  min time  |  avg time  |  max time  |%varavg| %total
---------------------------------------------------------------
Pair    | 0          | 0          | 0          |   0.0 |  0.00
Neigh   | 0          | 0          | 0          |   0.0 |  0.00
Comm    | 0          | 0          | 0          |   0.0 |  0.00
Output  | 0          | 0          | 0          |   0.0 |  0.00
Modify  | 0          | 0          | 0          |   0.0 |  0.00
Other   |            | 9.537e-07  |            |       |100.00

Nlocal:        192.000 ave         192 max         192 min
Histogram: 1 0 0 0 0 0 0 0 0 0
Nghost:        1068.00 ave        1068 max        1068 min
Histogram: 1 0 0 0 0 0 0 0 0 0
Neighs:        4885.00 ave        4885 max        4885 min
Histogram: 1 0 0 0 0 0 0 0 0 0
FullNghs:      0.00000 ave           0 max           0 min
Histogram: 1 0 0 0 0 0 0 0 0 0

Total # of neighbors = 4885
Ave neighs/atom = 25.442708
Neighbor list builds = 0
Dangerous builds = 0
clear
OMP_NUM_THREADS environment is not set. Defaulting to 1 thread. (src/comm.cpp:94)
  using 1 OpenMP thread(s) per MPI task
units metal
boundary p p p
atom_style atomic
atom_modify map array
read_data data/48/DATA
Reading data file ...
  orthogonal box = (0.0000000 0.0000000 0.0000000) to (12.990503 11.250148 15.845291)
  1 by 1 by 1 MPI processor grid
  reading atoms ...
  192 atoms
  read_data CPU = 0.000 seconds
pair_style zero 3.5
pair_coeff * *
compute PE all pe
compute S all pressure thermo_temp
compute SNA all sna/atom 3.5 0.99363 6 0.5 0.5 1.0 0.5 rmin0 0.0 bzeroflag 0 quadraticflag 0 switchflag 1
compute SNAD all snad/atom 3.5 0.99363 6 0.5 0.5 1.0 0.5 rmin0 0.0 bzeroflag 0 quadraticflag 0 switchflag 1
compute SNAV all snav/atom 3.5 0.99363 6 0.5 0.5 1.0 0.5 rmin0 0.0 bzeroflag 0 quadraticflag 0 switchflag 1
thermo_style custom pe
dump 2 all custom 100 dump.forces fx fy fz
run 0
WARNING: No fixes defined, atoms won't move (src/verlet.cpp:54)
Neighbor list info ...
  update every 1 steps, delay 10 steps, check yes
  max neighbors/atom: 2000, page size: 100000
  master list distance cutoff = 5.5
  ghost atom cutoff = 5.5
  binsize = 2.75, bins = 5 5 6
  4 neighbor lists, perpetual/occasional/extra = 1 3 0
  (1) pair zero, perpetual
      attributes: half, newton on
      pair build: half/bin/atomonly/newton
      stencil: half/bin/3d/newton
      bin: standard
  (2) compute sna/atom, occasional
      attributes: full, newton on
      pair build: full/bin/atomonly
      stencil: full/bin/3d
      bin: standard
  (3) compute snad/atom, occasional
      attributes: full, newton on
      pair build: full/bin/atomonly
      stencil: full/bin/3d
      bin: standard
  (4) compute snav/atom, occasional
      attributes: full, newton on
      pair build: full/bin/atomonly
      stencil: full/bin/3d
      bin: standard
Per MPI rank memory allocation (min/avg/max) = 8.674 | 8.674 | 8.674 Mbytes
PotEng 
           0 
Loop time of 1.19209e-06 on 1 procs for 0 steps with 192 atoms

0.0% CPU use with 1 MPI tasks x 1 OpenMP threads

MPI task timing breakdown:
Section |  min time  |  avg time  |  max time  |%varavg| %total
---------------------------------------------------------------
Pair    | 0          | 0          | 0          |   0.0 |  0.00
Neigh   | 0          | 0          | 0          |   0.0 |  0.00
Comm    | 0          | 0          | 0          |   0.0 |  0.00
Output  | 0          | 0          | 0          |   0.0 |  0.00
Modify  | 0          | 0          | 0          |   0.0 |  0.00
Other   |            | 1.192e-06  |            |       |100.00

Nlocal:        192.000 ave         192 max         192 min
Histogram: 1 0 0 0 0 0 0 0 0 0
Nghost:        1068.00 ave        1068 max        1068 min
Histogram: 1 0 0 0 0 0 0 0 0 0
Neighs:        4916.00 ave        4916 max        4916 min
Histogram: 1 0 0 0 0 0 0 0 0 0
FullNghs:      0.00000 ave           0 max           0 min
Histogram: 1 0 0 0 0 0 0 0 0 0

Total # of neighbors = 4916
Ave neighs/atom = 25.604167
Neighbor list builds = 0
Dangerous builds = 0
clear
OMP_NUM_THREADS environment is not set. Defaulting to 1 thread. (src/comm.cpp:94)
  using 1 OpenMP thread(s) per MPI task
Total wall time: 0:00:01
