LAMMPS DATA file

192 atoms
0 bonds
0 angles
0 dihedrals
0 impropers

2 atom types
0 bond types
0 angle types

0.0 12.990503 xlo xhi
0.0 11.250148 ylo yhi
0.0 15.845291 zlo zhi

Masses

1 69.723
2 14.0067

Atoms

1 1 1.725529 0.895444 2.566620 0 0 0
2 1 1.510666 0.838620 7.942293 0 0 0
3 1 1.711369 0.903173 13.150957 0 0 0
4 1 12.871389 3.725599 2.751535 0 0 0
5 1 12.867162 3.676098 8.021995 0 0 0
6 1 12.863933 3.742587 13.304023 0 0 0
7 1 4.975493 0.939095 2.742820 0 0 0
8 1 3.265163 1.936713 5.216903 0 0 0
9 1 4.769463 0.981294 7.993791 0 0 0
10 1 3.220865 1.840524 10.416852 0 0 0
11 1 4.838962 0.907549 13.130517 0 0 0
12 1 3.355317 1.911063 15.816135 0 0 0
13 1 3.280102 3.772625 2.787662 0 0 0
14 1 1.692533 4.736762 5.396906 0 0 0
15 1 3.120449 3.766100 8.066679 0 0 0
16 1 1.632517 4.589160 10.578474 0 0 0
17 1 3.176957 3.736624 13.071889 0 0 0
18 1 1.526904 4.755438 15.762103 0 0 0
19 1 1.623813 6.567724 2.483115 0 0 0
20 1 1.721761 6.553661 8.069214 0 0 0
21 1 1.641870 6.646813 13.117048 0 0 0
22 1 12.891143 9.296672 2.495792 0 0 0
23 1 12.912615 9.458000 8.002981 0 0 0
24 1 0.112205 9.280810 13.062699 0 0 0
25 1 8.243124 0.942391 2.726499 0 0 0
26 1 6.445758 1.789224 5.271728 0 0 0
27 1 8.097111 1.031076 7.809193 0 0 0
28 1 6.418218 1.796311 10.703018 0 0 0
29 1 8.183627 0.871459 13.251416 0 0 0
30 1 6.422375 1.863587 0.134685 0 0 0
31 1 6.516556 3.670811 2.676428 0 0 0
32 1 4.789469 4.593661 5.185688 0 0 0
33 1 6.502137 3.787587 7.904106 0 0 0
34 1 4.797523 4.624598 10.681627 0 0 0
35 1 6.443679 3.693761 13.324622 0 0 0
36 1 4.772581 4.724725 15.785078 0 0 0
37 1 4.826232 6.635787 2.651234 0 0 0
38 1 3.285298 7.577762 5.306429 0 0 0
39 1 4.827531 6.497636 7.957030 0 0 0
40 1 3.186051 7.607125 10.450761 0 0 0
41 1 4.947953 6.658063 13.188194 0 0 0
42 1 3.277114 7.479999 0.142608 0 0 0
43 1 3.287377 9.436174 2.608452 0 0 0
44 1 1.532620 10.311323 5.386765 0 0 0
45 1 3.293872 9.362936 7.916307 0 0 0
46 1 1.534438 10.357111 10.464388 0 0 0
47 1 3.293742 9.290597 13.229233 0 0 0
48 1 1.694741 10.330561 0.052289 0 0 0
49 1 11.347854 0.887288 2.786870 0 0 0
50 1 9.863689 1.926363 5.347469 0 0 0
51 1 11.404363 0.844324 7.925973 0 0 0
52 1 9.834201 1.809811 10.661662 0 0 0
53 1 11.290436 0.931996 13.135587 0 0 0
54 1 9.702607 1.971363 15.690957 0 0 0
55 1 9.800036 3.722224 2.663276 0 0 0
56 1 8.074897 4.769725 5.388825 0 0 0
57 1 9.755348 3.647298 7.927874 0 0 0
58 1 8.203633 4.702449 10.469142 0 0 0
59 1 9.697021 3.652136 13.158880 0 0 0
60 1 8.056320 4.633711 15.831030 0 0 0
61 1 8.013841 6.464335 2.735689 0 0 0
62 1 6.383144 7.454573 5.367434 0 0 0
63 1 8.107763 6.654913 7.933262 0 0 0
64 1 6.476805 7.477411 10.419705 0 0 0
65 1 8.175183 6.612050 13.275343 0 0 0
66 1 6.544486 7.446248 15.684461 0 0 0
67 1 6.456280 9.464300 2.712555 0 0 0
68 1 4.817918 10.241572 5.169526 0 0 0
69 1 6.385092 9.360911 7.844845 0 0 0
70 1 4.803109 10.233135 10.548844 0 0 0
71 1 6.554618 9.350673 13.089953 0 0 0
72 1 4.778297 10.403687 15.793001 0 0 0
73 1 12.902038 1.958651 5.372504 0 0 0
74 1 0.061055 1.873262 10.526977 0 0 0
75 1 0.094831 1.803174 0.129931 0 0 0
76 1 11.450349 4.729562 5.266499 0 0 0
77 1 11.467497 4.796051 10.409881 0 0 0
78 1 11.451129 4.723375 15.823424 0 0 0
79 1 11.385786 6.629600 2.677537 0 0 0
80 1 9.818092 7.401023 5.241305 0 0 0
81 1 11.345906 6.599449 7.959723 0 0 0
82 1 9.843034 7.525224 10.594637 0 0 0
83 1 11.464639 6.622625 13.278195 0 0 0
84 1 9.642980 7.433535 15.718211 0 0 0
85 1 9.831603 9.348423 2.620811 0 0 0
86 1 8.008385 10.205797 5.422417 0 0 0
87 1 9.654152 9.472737 7.833753 0 0 0
88 1 8.008775 10.351486 10.426360 0 0 0
89 1 9.629081 9.419074 13.041149 0 0 0
90 1 8.029950 10.261935 15.781276 0 0 0
91 1 0.055859 7.516224 5.281077 0 0 0
92 1 0.019486 7.388760 10.511290 0 0 0
93 1 0.011691 7.408335 15.767649 0 0 0
94 1 11.390203 10.201184 5.127536 0 0 0
95 1 11.334604 10.237410 10.496713 0 0 0
96 1 11.306934 10.269248 0.020599 0 0 0
97 2 1.633816 1.002917 4.586736 0 0 0
98 2 1.689285 0.971844 9.925173 0 0 0
99 2 1.715006 0.920690 15.214173 0 0 0
100 2 0.069697 3.758900 4.780524 0 0 0
101 2 12.888032 3.705236 9.870665 0 0 0
102 2 12.983416 3.687574 15.133679 0 0 0
103 2 4.800511 0.829901 4.473442 0 0 0
104 2 3.321412 1.766723 2.113762 0 0 0
105 2 4.792586 0.962045 9.915983 0 0 0
106 2 3.301277 1.841987 7.349996 0 0 0
107 2 4.872868 0.997314 15.146989 0 0 0
108 2 3.358045 1.965288 12.566108 0 0 0
109 2 3.253082 3.677786 4.661526 0 0 0
110 2 1.683050 4.772200 1.977651 0 0 0
111 2 3.313098 3.678236 9.757055 0 0 0
112 2 1.527553 4.768600 7.361880 0 0 0
113 2 3.166435 3.676098 15.246180 0 0 0
114 2 1.597832 4.785588 12.542181 0 0 0
115 2 1.598352 6.492798 4.575328 0 0 0
116 2 1.608484 6.481098 10.060967 0 0 0
117 2 1.608094 6.630950 15.291181 0 0 0
118 2 12.920753 9.406924 4.550292 0 0 0
119 2 12.892845 9.354161 9.771791 0 0 0
120 2 12.889116 9.381724 15.099136 0 0 0
121 2 7.995915 1.048694 4.704625 0 0 0
122 2 6.620480 1.976539 1.977175 0 0 0
123 2 8.245722 1.016923 9.848323 0 0 0
124 2 6.612556 1.788099 7.146543 0 0 0
125 2 7.989289 0.893217 15.149048 0 0 0
126 2 6.396654 1.922763 12.694613 0 0 0
127 2 6.449135 3.815038 4.681333 0 0 0
128 2 4.769983 4.738000 2.107424 0 0 0
129 2 6.365476 3.660461 9.867655 0 0 0
130 2 4.979130 4.799876 7.163497 0 0 0
131 2 6.410164 3.660686 15.224155 0 0 0
132 2 4.848575 4.632586 12.455191 0 0 0
133 2 4.790248 6.648950 4.668656 0 0 0
134 2 3.279453 7.535687 1.883847 0 0 0
135 2 4.904175 6.647263 9.806809 0 0 0
136 2 3.285428 7.586537 7.188850 0 0 0
137 2 4.893782 6.559624 15.297994 0 0 0
138 2 3.131101 7.554025 12.566900 0 0 0
139 2 3.229309 9.438087 4.594342 0 0 0
140 2 1.586660 10.348561 1.952615 0 0 0
141 2 3.164097 9.274847 9.828675 0 0 0
142 2 1.728257 10.421237 7.262847 0 0 0
143 2 3.155393 9.377786 15.346956 0 0 0
144 2 1.692013 10.417525 12.685898 0 0 0
145 2 11.298230 0.846956 4.598462 0 0 0
146 2 9.647008 1.932325 1.938037 0 0 0
147 2 11.353700 0.869861 9.983801 0 0 0
148 2 9.665844 1.935363 7.185839 0 0 0
149 2 11.396179 0.902813 15.261075 0 0 0
150 2 9.643370 1.803174 12.452655 0 0 0
151 2 9.706634 3.728524 4.540151 0 0 0
152 2 8.162972 4.790426 1.964499 0 0 0
153 2 9.821860 3.817175 10.065721 0 0 0
154 2 8.044239 4.649124 7.351106 0 0 0
155 2 9.809649 3.853851 15.212747 0 0 0
156 2 8.147254 4.657224 12.500033 0 0 0
157 2 8.145046 6.568399 4.622230 0 0 0
158 2 6.535652 7.396185 1.887808 0 0 0
159 2 8.230523 6.581224 9.755153 0 0 0
160 2 6.441601 7.397760 7.361247 0 0 0
161 2 8.174014 6.570762 15.218134 0 0 0
162 2 6.420167 7.480786 12.554699 0 0 0
163 2 6.583197 9.411086 4.621121 0 0 0
164 2 4.963152 10.308511 1.913953 0 0 0
165 2 6.555268 9.480725 9.869398 0 0 0
166 2 4.803498 10.254735 7.115486 0 0 0
167 2 6.620610 9.443262 15.210687 0 0 0
168 2 4.842600 10.346986 12.706180 0 0 0
169 2 0.055859 1.785511 1.969411 0 0 0
170 2 0.050663 1.837487 7.401494 0 0 0
171 2 0.033775 1.972263 12.526178 0 0 0
172 2 11.314858 4.775125 1.833142 0 0 0
173 2 11.275237 4.790876 7.335894 0 0 0
174 2 11.316417 4.761400 12.647236 0 0 0
175 2 11.473083 6.594724 4.667864 0 0 0
176 2 9.643760 7.594413 2.025503 0 0 0
177 2 11.303686 6.664138 9.764977 0 0 0
178 2 9.618428 7.407435 7.273622 0 0 0
179 2 11.465028 6.540611 15.210053 0 0 0
180 2 9.768339 7.404510 12.515244 0 0 0
181 2 9.705205 9.317710 4.502756 0 0 0
182 2 8.018388 10.260248 1.912051 0 0 0
183 2 9.856155 9.304548 9.911071 0 0 0
184 2 8.027481 10.407287 7.404029 0 0 0
185 2 9.648566 9.458675 15.036072 0 0 0
186 2 8.176742 10.397837 12.513977 0 0 0
187 2 12.924641 7.412723 2.096015 0 0 0
188 2 0.041570 7.563025 7.223076 0 0 0
189 2 12.908403 7.389885 12.418430 0 0 0
190 2 11.322393 10.267785 1.988267 0 0 0
191 2 11.337202 10.411000 7.160011 0 0 0
192 2 11.439307 10.240110 12.646443 0 0 0
