LAMMPS DATA file

64 atoms

1 atom types

0.000000 10.862000 xlo xhi
0.000000 10.862000 ylo yhi
0.000000 10.862000 zlo zhi

Masses

1 28.0855

Atoms

1 1 6.743240 1.310310 1.327320
2 1 9.505970 3.999230 1.309600
3 1 9.479670 1.349740 4.082060
4 1 1.370830 1.360340 1.387790
5 1 4.064670 4.104210 1.387560
6 1 6.816200 6.819990 1.371640
7 1 9.482670 9.508300 1.417570
8 1 4.106620 1.303050 4.084540
9 1 6.806250 4.108610 4.030890
10 1 9.494440 6.744750 4.063220
11 1 6.827750 1.430140 6.758870
12 1 9.446320 4.081050 6.864910
13 1 9.501410 1.339730 9.500570
14 1 1.329870 6.780850 1.322200
15 1 4.020570 9.483180 1.269970
16 1 1.340100 4.085190 4.069580
17 1 4.099040 6.786020 4.078840
18 1 6.818560 9.466770 4.149760
19 1 1.348420 1.430160 6.774370
20 1 4.066210 4.081180 6.760470
21 1 6.782930 6.771070 6.792160
22 1 9.549800 9.533130 6.767230
23 1 4.069310 1.372720 9.458830
24 1 6.796250 4.045490 9.533360
25 1 9.493850 6.828720 9.504270
26 1 1.392870 9.501690 4.090260
27 1 1.332940 6.793130 6.803400
28 1 4.147170 9.484800 6.786820
29 1 1.415220 4.055910 9.518040
30 1 4.044490 6.795630 9.499520
31 1 6.766770 9.452110 9.531850
32 1 1.353340 9.545900 9.430010
33 1 5.374980 -0.021528 0.000037
34 1 8.205140 2.623650 -0.012777
35 1 8.114580 -0.009288 2.740890
36 1 0.009986 -0.002005 0.025155
37 1 2.808910 2.697600 0.049025
38 1 5.462370 5.472020 0.043616
39 1 8.127100 8.164420 0.017950
40 1 2.733800 0.001086 2.713160
41 1 5.409460 2.710490 2.711250
42 1 8.185600 5.438230 2.636330
43 1 5.499260 -0.015814 5.439730
44 1 8.161350 2.729080 5.389950
45 1 8.131380 0.006594 8.112080
46 1 -0.001040 5.416460 -0.015444
47 1 2.639260 8.163970 -0.039534
48 1 0.004874 2.671790 2.764640
49 1 2.697180 5.463410 2.744820
50 1 5.377270 8.193990 2.748710
51 1 0.018564 0.033367 5.420410
52 1 2.707250 2.687900 5.443210
53 1 5.429220 5.419710 5.405560
54 1 8.146090 8.167600 5.450000
55 1 2.700090 -0.027005 8.101510
56 1 5.445260 2.707760 8.135820
57 1 8.079650 5.429710 8.158670
58 1 -0.021613 8.165650 2.737490
59 1 -0.005309 5.411180 5.459160
60 1 2.725090 8.117500 5.410730
61 1 0.027300 2.778500 8.155410
62 1 2.671330 5.459740 8.181770
63 1 5.438310 8.126590 8.180740
64 1 0.019588 8.200590 8.098450
