LAMMPS DATA file

192 atoms
0 bonds
0 angles
0 dihedrals
0 impropers

2 atom types
0 bond types
0 angle types

0.0 12.990503 xlo xhi
0.0 11.250148 ylo yhi
0.0 15.845291 zlo zhi

Masses

1 69.723
2 14.0067

Atoms

1 1 1.657718 0.885960 2.537306 0 0 0
2 1 1.749171 0.917326 7.955603 0 0 0
3 1 1.734362 0.967198 13.089161 0 0 0
4 1 12.920813 3.848788 2.633012 0 0 0
5 1 12.986714 3.757775 8.043386 0 0 0
6 1 12.986110 3.653936 13.282949 0 0 0
7 1 4.867022 0.862976 2.570106 0 0 0
8 1 3.189039 1.828262 5.416079 0 0 0
9 1 4.847796 0.918935 7.906325 0 0 0
10 1 3.199041 1.956288 10.575781 0 0 0
11 1 4.885209 0.843052 13.152383 0 0 0
12 1 3.204497 1.951676 15.777631 0 0 0
13 1 3.204367 3.817288 2.667238 0 0 0
14 1 1.519499 4.742837 5.227520 0 0 0
15 1 3.187999 3.691174 8.026907 0 0 0
16 1 1.640830 4.627523 10.486096 0 0 0
17 1 3.349212 3.752824 13.296100 0 0 0
18 1 1.728776 4.732600 15.837209 0 0 0
19 1 1.600820 6.560974 2.656621 0 0 0
20 1 1.707861 6.565587 7.823612 0 0 0
21 1 1.620695 6.458148 13.050181 0 0 0
22 1 0.023422 9.309273 2.669456 0 0 0
23 1 12.886977 9.316248 8.023897 0 0 0
24 1 0.107633 9.288460 13.096133 0 0 0
25 1 8.230133 1.025249 2.788771 0 0 0
26 1 6.545525 1.927038 5.413860 0 0 0
27 1 8.175573 0.932199 7.945462 0 0 0
28 1 6.550851 1.787536 10.657859 0 0 0
29 1 8.114518 0.978808 13.323671 0 0 0
30 1 6.545005 1.764698 15.777314 0 0 0
31 1 6.507593 3.776675 2.646480 0 0 0
32 1 4.747120 4.695699 5.123733 0 0 0
33 1 6.579040 3.806600 7.907909 0 0 0
34 1 4.941717 4.705374 10.500833 0 0 0
35 1 6.460047 3.675198 13.156503 0 0 0
36 1 4.965360 4.585110 0.141023 0 0 0
37 1 4.746080 6.559849 2.597994 0 0 0
38 1 3.296080 7.512961 5.399441 0 0 0
39 1 4.889496 6.609237 7.919159 0 0 0
40 1 3.285948 7.431285 10.550270 0 0 0
41 1 4.767255 6.664025 13.156979 0 0 0
42 1 3.340378 7.607913 15.778740 0 0 0
43 1 3.335442 9.273047 2.752169 0 0 0
44 1 1.581074 10.267898 5.401501 0 0 0
45 1 3.252692 9.321198 8.056855 0 0 0
46 1 1.703704 10.222897 10.712050 0 0 0
47 1 3.147859 9.380486 13.073157 0 0 0
48 1 1.516252 10.325611 0.126762 0 0 0
49 1 11.252634 1.022897 2.632695 0 0 0
50 1 9.701698 1.947738 5.417822 0 0 0
51 1 11.405532 1.045015 7.919001 0 0 0
52 1 9.847971 1.885075 10.659285 0 0 0
53 1 11.463340 1.009780 13.287861 0 0 0
54 1 9.842385 1.769648 0.147361 0 0 0
55 1 9.841216 3.783312 2.700830 0 0 0
56 1 8.235589 4.672299 5.406572 0 0 0
57 1 9.868366 3.736737 7.837873 0 0 0
58 1 8.152710 4.709762 10.402750 0 0 0
59 1 9.752360 3.754399 13.332703 0 0 0
60 1 8.034756 4.709425 15.683193 0 0 0
61 1 8.199346 6.581899 2.566620 0 0 0
62 1 6.425363 7.409348 5.286306 0 0 0
63 1 8.024883 6.622737 7.773383 0 0 0
64 1 6.368594 7.573150 10.664039 0 0 0
65 1 8.034496 6.627462 13.137806 0 0 0
66 1 6.607360 7.585750 15.746257 0 0 0
67 1 6.505514 9.426949 2.730619 0 0 0
68 1 4.962372 10.306036 5.391835 0 0 0
69 1 6.530196 9.312310 7.803172 0 0 0
70 1 4.779206 10.374324 10.558351 0 0 0
71 1 6.451344 9.449562 13.271857 0 0 0
72 1 4.750627 10.379499 0.076057 0 0 0
73 1 0.050663 1.874950 5.179509 0 0 0
74 1 0.042869 1.799349 10.522857 0 0 0
75 1 12.900349 1.774373 0.055459 0 0 0
76 1 11.254582 4.703574 5.418772 0 0 0
77 1 11.265105 4.702449 10.441413 0 0 0
78 1 11.265624 4.755775 0.120424 0 0 0
79 1 11.312130 6.577287 2.483274 0 0 0
80 1 9.692214 7.592163 5.305954 0 0 0
81 1 11.387865 6.645238 8.023104 0 0 0
82 1 9.650515 7.399560 10.677666 0 0 0
83 1 11.345906 6.483235 13.111978 0 0 0
84 1 9.692864 7.559312 15.780800 0 0 0
85 1 9.618298 9.449337 2.791306 0 0 0
86 1 8.243643 10.336299 5.301359 0 0 0
87 1 9.706374 9.458900 8.019777 0 0 0
88 1 8.060867 10.307048 10.420814 0 0 0
89 1 9.615960 9.451587 13.071256 0 0 0
90 1 8.120234 10.388049 0.042782 0 0 0
91 1 0.031177 7.539624 5.380585 0 0 0
92 1 12.974525 7.399785 10.469617 0 0 0
93 1 0.098728 7.514649 15.742455 0 0 0
94 1 11.257050 10.242810 5.423685 0 0 0
95 1 11.335253 10.364762 10.438402 0 0 0
96 1 11.395659 10.253498 0.083980 0 0 0
97 2 1.573929 0.890944 4.749467 0 0 0
98 2 1.579255 0.854550 9.917726 0 0 0
99 2 1.549247 1.028804 15.166003 0 0 0
100 2 12.987080 3.655736 4.773711 0 0 0
101 2 12.985122 3.676211 9.769097 0 0 0
102 2 0.079780 3.640098 15.094699 0 0 0
103 2 4.926259 0.937902 4.729819 0 0 0
104 2 3.161109 1.952688 1.922351 0 0 0
105 2 4.893003 1.043744 10.022622 0 0 0
106 2 3.305174 1.913763 7.362673 0 0 0
107 2 4.950551 0.903747 15.039082 0 0 0
108 2 3.262175 1.815999 12.506371 0 0 0
109 2 3.227491 3.780387 4.736950 0 0 0
110 2 1.720332 4.788401 2.110276 0 0 0
111 2 3.148119 3.798838 9.954328 0 0 0
112 2 1.511835 4.749700 7.208815 0 0 0
113 2 3.210343 3.664848 15.113555 0 0 0
114 2 1.596013 4.794813 12.496547 0 0 0
115 2 1.638752 6.623300 4.643145 0 0 0
116 2 1.568733 6.558724 9.961142 0 0 0
117 2 1.741117 6.654350 15.301005 0 0 0
118 2 0.069100 9.292510 4.678164 0 0 0
119 2 0.024894 9.359673 9.979998 0 0 0
120 2 0.119705 9.276535 15.118942 0 0 0
121 2 8.136472 0.999013 4.540943 0 0 0
122 2 6.494342 1.810486 2.135945 0 0 0
123 2 8.066323 0.979348 9.867813 0 0 0
124 2 6.465633 1.848062 7.285506 0 0 0
125 2 8.074767 0.882462 15.306392 0 0 0
126 2 6.385092 1.957188 12.656267 0 0 0
127 2 6.486808 3.811100 4.709537 0 0 0
128 2 4.786351 4.791888 2.106790 0 0 0
129 2 6.521622 3.642460 9.807918 0 0 0
130 2 4.819217 4.697274 7.333200 0 0 0
131 2 6.374440 3.719862 15.213539 0 0 0
132 2 4.828830 4.631686 12.569911 0 0 0
133 2 4.951070 6.659525 4.733147 0 0 0
134 2 3.353109 7.517012 2.127706 0 0 0
135 2 4.752186 6.612500 9.951476 0 0 0
136 2 3.169293 7.546712 7.391036 0 0 0
137 2 4.760370 6.661663 15.230176 0 0 0
138 2 3.199561 7.513862 12.418430 0 0 0
139 2 3.181764 9.340886 4.742495 0 0 0
140 2 1.519759 10.366224 1.917122 0 0 0
141 2 3.149028 9.450350 9.992516 0 0 0
142 2 1.692792 10.221435 7.334627 0 0 0
143 2 3.238013 9.283847 15.217342 0 0 0
144 2 1.707212 10.232910 12.665933 0 0 0
145 2 11.488671 0.846517 4.591490 0 0 0
146 2 9.812896 1.828937 2.105205 0 0 0
147 2 11.276536 1.038884 9.923430 0 0 0
148 2 9.831473 1.949426 7.233375 0 0 0
149 2 11.305115 0.999069 15.296093 0 0 0
150 2 9.682991 1.930638 12.586548 0 0 0
151 2 9.718585 3.785000 4.613356 0 0 0
152 2 8.183757 4.598386 1.878459 0 0 0
153 2 9.757427 3.730999 9.855454 0 0 0
154 2 8.044889 4.748688 7.340014 0 0 0
155 2 9.831603 3.671823 15.290705 0 0 0
156 2 8.013452 4.693787 12.445367 0 0 0
157 2 8.154269 6.483010 4.760559 0 0 0
158 2 6.562153 7.596663 2.093004 0 0 0
159 2 7.992537 6.522836 9.842461 0 0 0
160 2 6.395225 7.578887 7.419716 0 0 0
161 2 8.127119 6.574249 15.202130 0 0 0
162 2 6.450045 7.511836 12.448060 0 0 0
163 2 6.503955 9.315573 4.611613 0 0 0
164 2 4.804797 10.392662 1.843758 0 0 0
165 2 6.415360 9.463850 9.996318 0 0 0
166 2 4.776348 10.280498 7.282654 0 0 0
167 2 6.400681 9.388924 15.165686 0 0 0
168 2 4.839482 10.329549 12.661972 0 0 0
169 2 0.089634 1.940088 1.875290 0 0 0
170 2 0.029878 1.802161 7.256351 0 0 0
171 2 12.872030 1.952351 12.560879 0 0 0
172 2 11.476460 4.739687 1.952298 0 0 0
173 2 11.396309 4.711900 7.393413 0 0 0
174 2 11.488801 4.704362 12.498924 0 0 0
175 2 11.465288 6.665375 4.704150 0 0 0
176 2 9.851868 7.539174 2.124853 0 0 0
177 2 11.273029 6.566712 9.903465 0 0 0
178 2 9.732095 7.554925 7.267443 0 0 0
179 2 11.277186 6.601137 15.288170 0 0 0
180 2 9.779641 7.486749 12.473413 0 0 0
181 2 9.765481 9.332785 4.729502 0 0 0
182 2 8.074637 10.325949 2.115029 0 0 0
183 2 9.627911 9.415474 9.974769 0 0 0
184 2 8.235719 10.415500 7.368060 0 0 0
185 2 9.837448 9.300273 15.135738 0 0 0
186 2 8.189993 10.207934 12.403377 0 0 0
187 2 0.128606 7.437135 2.038972 0 0 0
188 2 12.978942 7.448948 7.202318 0 0 0
189 2 0.113017 7.582375 12.422232 0 0 0
190 2 11.271600 10.351599 1.959270 0 0 0
191 2 11.369288 10.201184 7.357602 0 0 0
192 2 11.240033 10.353399 12.675916 0 0 0
