LAMMPS DATA file

192 atoms
0 bonds
0 angles
0 dihedrals
0 impropers

2 atom types
0 bond types
0 angle types

0.0 12.990503 xlo xhi
0.0 11.250148 ylo yhi
0.0 15.845291 zlo zhi

Masses

1 69.723
2 14.0067

Atoms

1 1 1.741247 1.044576 2.486760 0 0 0
2 1 1.622254 1.019128 7.835655 0 0 0
3 1 1.710719 1.008070 13.239849 0 0 0
4 1 12.861181 3.723012 2.763577 0 0 0
5 1 0.046859 3.722787 7.958931 0 0 0
6 1 12.923803 3.766100 13.351559 0 0 0
7 1 4.962242 0.888784 2.693224 0 0 0
8 1 3.210733 1.984639 5.144490 0 0 0
9 1 4.806616 1.007563 7.785425 0 0 0
10 1 3.255680 1.942676 10.633774 0 0 0
11 1 4.778297 0.923536 13.151433 0 0 0
12 1 3.242040 1.894637 15.727560 0 0 0
13 1 3.352979 3.781625 2.528591 0 0 0
14 1 1.640960 4.784688 5.366008 0 0 0
15 1 3.295821 3.742474 7.841200 0 0 0
16 1 1.641870 4.631011 10.500833 0 0 0
17 1 3.354408 3.836751 13.292297 0 0 0
18 1 1.734492 4.615261 0.000000 0 0 0
19 1 1.656809 6.655588 2.687361 0 0 0
20 1 1.594974 6.616550 8.017875 0 0 0
21 1 1.649924 6.469173 13.332703 0 0 0
22 1 12.874525 9.381161 2.514648 0 0 0
23 1 12.959365 9.445512 7.836130 0 0 0
24 1 0.099879 9.423012 13.160306 0 0 0
25 1 8.053852 0.881899 2.720161 0 0 0
26 1 6.378337 1.916688 5.314352 0 0 0
27 1 8.183108 1.044891 7.880338 0 0 0
28 1 6.432897 1.960001 10.655007 0 0 0
29 1 8.108932 0.845471 13.219251 0 0 0
30 1 6.414061 1.882150 15.793793 0 0 0
31 1 6.447187 3.801088 2.640459 0 0 0
32 1 4.946914 4.621111 5.332733 0 0 0
33 1 6.378987 3.817850 7.973826 0 0 0
34 1 4.987314 4.595686 10.687490 0 0 0
35 1 6.497850 3.775887 13.140658 0 0 0
36 1 4.761669 4.766463 15.727085 0 0 0
37 1 4.837793 6.590112 2.793049 0 0 0
38 1 3.252172 7.610500 5.189650 0 0 0
39 1 4.844938 6.606762 7.779245 0 0 0
40 1 3.311929 7.482136 10.656750 0 0 0
41 1 4.840132 6.521823 13.352985 0 0 0
42 1 3.304264 7.480561 15.712665 0 0 0
43 1 3.308551 9.406024 2.500387 0 0 0
44 1 1.525215 10.421012 5.275214 0 0 0
45 1 3.123567 9.274735 7.803330 0 0 0
46 1 1.726048 10.304911 10.577365 0 0 0
47 1 3.246197 9.277885 13.324939 0 0 0
48 1 1.568863 10.260698 0.023768 0 0 0
49 1 11.360455 0.907876 2.684668 0 0 0
50 1 9.856674 1.902175 5.207396 0 0 0
51 1 11.290046 0.923817 7.767361 0 0 0
52 1 9.840566 1.899813 10.464071 0 0 0
53 1 11.371887 0.837124 13.313688 0 0 0
54 1 9.728068 1.885862 0.015845 0 0 0
55 1 9.789773 3.721099 2.501813 0 0 0
56 1 8.107763 4.585785 5.351747 0 0 0
57 1 9.622845 3.852276 7.993949 0 0 0
58 1 8.232731 4.690524 10.475955 0 0 0
59 1 9.680523 3.808288 13.355203 0 0 0
60 1 8.081782 4.744413 15.716151 0 0 0
61 1 8.144266 6.547024 2.708594 0 0 0
62 1 6.433157 7.408898 5.260795 0 0 0
63 1 8.155438 6.479748 7.902205 0 0 0
64 1 6.534743 7.573712 10.497188 0 0 0
65 1 8.093733 6.649063 13.262508 0 0 0
66 1 6.428221 7.558525 15.773511 0 0 0
67 1 6.437444 9.264047 2.595617 0 0 0
68 1 4.855071 10.268573 5.209932 0 0 0
69 1 6.428351 9.473412 8.031344 0 0 0
70 1 4.844678 10.308061 10.578633 0 0 0
71 1 6.492524 9.323335 13.354094 0 0 0
72 1 4.789209 10.394012 15.691750 0 0 0
73 1 12.946855 1.930975 5.321958 0 0 0
74 1 12.904506 1.976764 10.571819 0 0 0
75 1 12.925940 1.892725 0.126762 0 0 0
76 1 11.469445 4.683662 5.258101 0 0 0
77 1 11.317716 4.587473 10.638528 0 0 0
78 1 11.271080 4.655199 15.806787 0 0 0
79 1 11.466847 6.454885 2.744404 0 0 0
80 1 9.687798 7.443886 5.272520 0 0 0
81 1 11.426187 6.495723 7.827257 0 0 0
82 1 9.866677 7.521062 10.496079 0 0 0
83 1 11.488152 6.651650 13.100728 0 0 0
84 1 9.613492 7.547724 0.110917 0 0 0
85 1 9.643760 9.271360 2.666445 0 0 0
86 1 8.146215 10.316386 5.120247 0 0 0
87 1 9.791982 9.475437 8.035464 0 0 0
88 1 8.018648 10.279935 10.476272 0 0 0
89 1 9.758596 9.400511 13.135746 0 0 0
90 1 8.196488 10.379162 0.083980 0 0 0
91 1 12.951792 7.399785 5.342398 0 0 0
92 1 0.128606 7.424198 10.435550 0 0 0
93 1 0.107821 7.495974 0.106163 0 0 0
94 1 11.447231 10.242135 5.196146 0 0 0
95 1 11.250815 10.337199 10.645975 0 0 0
96 1 11.369548 10.206359 0.150530 0 0 0
97 2 1.624073 0.899708 4.523672 0 0 0
98 2 1.656419 0.954418 9.988396 0 0 0
99 2 1.533789 0.905288 15.077745 0 0 0
100 2 0.091093 3.713561 4.555838 0 0 0
101 2 12.862161 3.817963 9.907902 0 0 0
102 2 0.009834 3.833488 15.261233 0 0 0
103 2 4.915087 0.865249 4.642987 0 0 0
104 2 3.367138 1.896662 2.083973 0 0 0
105 2 4.997317 1.024348 9.818059 0 0 0
106 2 3.126684 1.864037 7.113902 0 0 0
107 2 4.864554 1.039030 15.111020 0 0 0
108 2 3.218137 1.859650 12.654524 0 0 0
109 2 3.331934 3.739437 4.589113 0 0 0
110 2 1.734492 4.741712 2.061472 0 0 0
111 2 3.363761 3.752374 10.001230 0 0 0
112 2 1.611342 4.766125 7.233217 0 0 0
113 2 3.309591 3.857226 15.198010 0 0 0
114 2 1.605626 4.621673 12.493695 0 0 0
115 2 1.522747 6.534536 4.573109 0 0 0
116 2 1.582763 6.633987 9.918835 0 0 0
117 2 1.629269 6.624312 15.070139 0 0 0
118 2 0.032594 9.340661 4.574694 0 0 0
119 2 0.019388 9.456987 9.813305 0 0 0
120 2 0.044806 9.465537 15.095175 0 0 0
121 2 8.066713 0.936732 4.750577 0 0 0
122 2 6.495641 1.824887 1.996982 0 0 0
123 2 8.138420 0.917888 9.754995 0 0 0
124 2 6.547993 1.876525 7.230206 0 0 0
125 2 8.006047 0.905693 15.106266 0 0 0
126 2 6.418218 1.945601 12.515878 0 0 0
127 2 6.379246 3.721887 4.714132 0 0 0
128 2 4.784532 4.780300 1.928847 0 0 0
129 2 6.451084 3.683524 9.993466 0 0 0
130 2 4.759720 4.788851 7.159536 0 0 0
131 2 6.439782 3.792200 15.076794 0 0 0
132 2 4.874556 4.737325 12.685581 0 0 0
133 2 4.931715 6.618800 4.597670 0 0 0
134 2 3.179945 7.504749 1.897157 0 0 0
135 2 4.960424 6.599224 10.008995 0 0 0
136 2 3.324010 7.493161 7.207547 0 0 0
137 2 4.920153 6.672125 15.276128 0 0 0
138 2 3.333233 7.546487 12.579893 0 0 0
139 2 3.313358 9.374411 4.742812 0 0 0
140 2 1.511575 10.418087 1.858969 0 0 0
141 2 3.259837 9.353261 9.784308 0 0 0
142 2 1.682010 10.338211 7.357602 0 0 0
143 2 3.264903 9.445174 15.214806 0 0 0
144 2 1.739169 10.396262 12.552005 0 0 0
145 2 11.441775 0.931445 4.731245 0 0 0
146 2 9.696761 1.982164 1.915854 0 0 0
147 2 11.255751 0.994041 10.013748 0 0 0
148 2 9.852647 1.836137 7.364257 0 0 0
149 2 11.376693 0.929251 15.292131 0 0 0
150 2 9.860312 1.779661 12.615862 0 0 0
151 2 9.674028 3.727287 4.553620 0 0 0
152 2 8.205451 4.798976 2.033585 0 0 0
153 2 9.795879 3.847326 9.968272 0 0 0
154 2 8.136862 4.660711 7.310542 0 0 0
155 2 9.707283 3.729312 15.148890 0 0 0
156 2 8.110881 4.688387 12.679718 0 0 0
157 2 8.042810 6.526323 4.650593 0 0 0
158 2 6.491874 7.446586 2.011401 0 0 0
159 2 8.217403 6.463773 9.889997 0 0 0
160 2 6.387301 7.514312 7.280436 0 0 0
161 2 8.188694 6.502586 15.218292 0 0 0
162 2 6.484599 7.581362 12.600650 0 0 0
163 2 6.457319 9.340773 4.549024 0 0 0
164 2 4.989003 10.267223 1.877825 0 0 0
165 2 6.459268 9.429537 9.973977 0 0 0
166 2 4.923661 10.201522 7.228146 0 0 0
167 2 6.599565 9.334248 15.221303 0 0 0
168 2 4.818957 10.228297 12.514294 0 0 0
169 2 0.083139 1.983289 2.100927 0 0 0
170 2 12.882422 1.838499 7.184255 0 0 0
171 2 12.943218 1.984076 12.564999 0 0 0
172 2 11.431383 4.764438 1.880519 0 0 0
173 2 11.471394 4.598723 7.345560 0 0 0
174 2 11.426317 4.736537 12.433483 0 0 0
175 2 11.352661 6.564574 4.636649 0 0 0
176 2 9.836279 7.540074 2.083022 0 0 0
177 2 11.374744 6.665150 9.771474 0 0 0
178 2 9.753660 7.450973 7.261897 0 0 0
179 2 11.414755 6.496961 15.224789 0 0 0
180 2 9.697670 7.585750 12.433483 0 0 0
181 2 9.639603 9.478475 4.517017 0 0 0
182 2 8.028781 10.235160 1.856117 0 0 0
183 2 9.731056 9.413112 10.013748 0 0 0
184 2 8.194409 10.360487 7.259203 0 0 0
185 2 9.797048 9.478137 15.192306 0 0 0
186 2 8.068402 10.377812 12.466124 0 0 0
187 2 12.921524 7.492149 2.023919 0 0 0
188 2 0.029878 7.415198 7.148761 0 0 0
189 2 12.934514 7.553125 12.521582 0 0 0
190 2 11.452168 10.410550 1.954200 0 0 0
191 2 11.250295 10.328649 7.346352 0 0 0
192 2 11.319925 10.311098 12.461529 0 0 0
