LAMMPS DATA file

192 atoms
0 bonds
0 angles
0 dihedrals
0 impropers

2 atom types
0 bond types
0 angle types

0.0 12.990503 xlo xhi
0.0 11.250148 ylo yhi
0.0 15.845291 zlo zhi

Masses

1 69.723
2 14.0067

Atoms

1 1 1.671228 0.858668 2.607026 0 0 0
2 1 1.636803 0.949164 8.003615 0 0 0
3 1 1.686427 1.029242 13.187402 0 0 0
4 1 12.964733 3.849913 2.507200 0 0 0
5 1 0.015265 3.708949 8.058123 0 0 0
6 1 0.030894 3.742024 13.319076 0 0 0
7 1 4.931845 0.957579 2.508785 0 0 0
8 1 3.123437 1.781461 5.262063 0 0 0
9 1 4.790508 0.841916 7.863067 0 0 0
10 1 3.176828 1.838387 10.574672 0 0 0
11 1 4.993160 0.876139 13.167278 0 0 0
12 1 3.375193 1.866512 0.147361 0 0 0
13 1 3.247236 3.859813 2.647431 0 0 0
14 1 1.528463 4.651374 5.348895 0 0 0
15 1 3.225672 3.845638 7.780988 0 0 0
16 1 1.592506 4.702224 10.639320 0 0 0
17 1 3.308291 3.723349 13.327157 0 0 0
18 1 1.544051 4.775350 15.763212 0 0 0
19 1 1.601339 6.450835 2.649966 0 0 0
20 1 1.583542 6.595287 8.054161 0 0 0
21 1 1.646546 6.508773 13.325731 0 0 0
22 1 12.865080 9.313885 2.704157 0 0 0
23 1 12.886484 9.423912 7.834704 0 0 0
24 1 12.967859 9.327723 13.088527 0 0 0
25 1 8.069701 0.967535 2.484066 0 0 0
26 1 6.527468 1.807561 5.243682 0 0 0
27 1 8.110231 1.004638 7.828683 0 0 0
28 1 6.464724 1.966526 10.438877 0 0 0
29 1 8.000851 0.980169 13.134954 0 0 0
30 1 6.624247 1.803961 0.012676 0 0 0
31 1 6.519024 3.749787 2.623505 0 0 0
32 1 4.781285 4.633261 5.346676 0 0 0
33 1 6.624247 3.762500 7.962734 0 0 0
34 1 4.918464 4.789413 10.515727 0 0 0
35 1 6.487198 3.666423 13.065710 0 0 0
36 1 4.882870 4.726300 0.102994 0 0 0
37 1 4.897030 6.464110 2.710654 0 0 0
38 1 3.157602 7.406760 5.133399 0 0 0
39 1 4.762448 6.498086 7.881764 0 0 0
40 1 3.192546 7.421273 10.600499 0 0 0
41 1 4.771022 6.615312 13.322562 0 0 0
42 1 3.232817 7.479436 15.812491 0 0 0
43 1 3.345964 9.381274 2.517500 0 0 0
44 1 1.548858 10.237972 5.230214 0 0 0
45 1 3.212422 9.386786 7.800320 0 0 0
46 1 1.678503 10.280048 10.604619 0 0 0
47 1 3.228270 9.433024 13.117524 0 0 0
48 1 1.542882 10.234485 0.150530 0 0 0
49 1 11.489970 1.032482 2.620019 0 0 0
50 1 9.665454 1.847049 5.353331 0 0 0
51 1 11.470874 1.018611 8.067154 0 0 0
52 1 9.652334 1.790236 10.461061 0 0 0
53 1 11.303686 0.988854 13.111186 0 0 0
54 1 9.768079 1.801711 0.019014 0 0 0
55 1 9.732225 3.836188 2.478996 0 0 0
56 1 8.084640 4.611661 5.141955 0 0 0
57 1 9.847061 3.733812 7.931836 0 0 0
58 1 8.011763 4.707512 10.528879 0 0 0
59 1 9.772106 3.646623 13.055727 0 0 0
60 1 8.108023 4.759488 0.057043 0 0 0
61 1 8.132055 6.495273 2.679122 0 0 0
62 1 6.377168 7.549749 5.252238 0 0 0
63 1 8.123221 6.655138 7.996326 0 0 0
64 1 6.615284 7.557962 10.538386 0 0 0
65 1 8.107503 6.565137 13.114513 0 0 0
66 1 6.479533 7.420035 0.001585 0 0 0
67 1 6.470310 9.274960 2.592448 0 0 0
68 1 4.767125 10.337424 5.188699 0 0 0
69 1 6.516166 9.336948 7.995217 0 0 0
70 1 4.944575 10.226947 10.536168 0 0 0
71 1 6.403149 9.284972 13.203247 0 0 0
72 1 4.789599 10.363299 15.693651 0 0 0
73 1 12.906065 1.953476 5.380902 0 0 0
74 1 12.913599 1.872250 10.569284 0 0 0
75 1 12.911391 1.968213 15.770976 0 0 0
76 1 11.483865 4.728775 5.313718 0 0 0
77 1 11.379291 4.750150 10.473420 0 0 0
78 1 11.267053 4.654636 15.712982 0 0 0
79 1 11.335773 6.670100 2.671516 0 0 0
80 1 9.762623 7.488774 5.259052 0 0 0
81 1 11.342658 6.652213 7.890638 0 0 0
82 1 9.789643 7.395735 10.455990 0 0 0
83 1 11.261207 6.478285 13.100252 0 0 0
84 1 9.733914 7.426223 0.001585 0 0 0
85 1 9.788474 9.458112 2.716834 0 0 0
86 1 8.244813 10.249560 5.172695 0 0 0
87 1 9.852647 9.464862 7.878278 0 0 0
88 1 8.024753 10.232122 10.401799 0 0 0
89 1 9.822899 9.448212 13.330484 0 0 0
90 1 8.079833 10.302886 0.041198 0 0 0
91 1 0.045467 7.607238 5.312134 0 0 0
92 1 0.111718 7.596438 10.715853 0 0 0
93 1 12.930357 7.600488 15.716944 0 0 0
94 1 11.462820 10.224810 5.402452 0 0 0
95 1 11.401765 10.335399 10.548051 0 0 0
96 1 11.370328 10.322686 0.055459 0 0 0
97 2 1.640181 0.870885 4.587529 0 0 0
98 2 1.657848 0.940917 9.791122 0 0 0
99 2 1.709550 1.013886 15.134629 0 0 0
100 2 12.901751 3.830450 4.569148 0 0 0
101 2 12.930653 3.831238 10.004241 0 0 0
102 2 12.928792 3.839788 15.072040 0 0 0
103 2 4.964061 1.010578 4.612406 0 0 0
104 2 3.150976 1.781011 1.882896 0 0 0
105 2 4.930546 0.934584 9.910912 0 0 0
106 2 3.356746 1.811049 7.152564 0 0 0
107 2 4.856370 0.874980 15.106900 0 0 0
108 2 3.189298 1.793611 12.447110 0 0 0
109 2 3.214500 3.859588 4.740752 0 0 0
110 2 1.684608 4.707737 1.903336 0 0 0
111 2 3.180725 3.641785 10.008995 0 0 0
112 2 1.679152 4.749363 7.203111 0 0 0
113 2 3.325179 3.752037 15.069505 0 0 0
114 2 1.721501 4.621336 12.483712 0 0 0
115 2 1.569513 6.647038 4.519552 0 0 0
116 2 1.681751 6.631287 9.985385 0 0 0
117 2 1.699677 6.607100 15.278821 0 0 0
118 2 12.955478 9.467337 4.643938 0 0 0
119 2 0.092607 9.478025 10.005509 0 0 0
120 2 12.969191 9.398261 15.197852 0 0 0
121 2 8.147254 0.864518 4.632688 0 0 0
122 2 6.494472 1.952913 2.009183 0 0 0
123 2 8.034886 0.854190 9.958607 0 0 0
124 2 6.420686 1.862800 7.345560 0 0 0
125 2 8.162063 0.892373 15.276920 0 0 0
126 2 6.457709 1.782811 12.621725 0 0 0
127 2 6.551500 3.655736 4.701932 0 0 0
128 2 4.763228 4.775688 2.109167 0 0 0
129 2 6.513308 3.828088 9.790488 0 0 0
130 2 4.794665 4.586235 7.328922 0 0 0
131 2 6.441601 3.805813 15.201496 0 0 0
132 2 4.826751 4.782326 12.653732 0 0 0
133 2 4.877414 6.477723 4.497844 0 0 0
134 2 3.292573 7.547499 2.138480 0 0 0
135 2 4.991601 6.540499 9.809502 0 0 0
136 2 3.218917 7.586762 7.298024 0 0 0
137 2 4.904694 6.666275 15.108009 0 0 0
138 2 3.200340 7.451986 12.682095 0 0 0
139 2 3.327777 9.482525 4.523355 0 0 0
140 2 1.703055 10.282073 2.005697 0 0 0
141 2 3.192676 9.424362 9.854503 0 0 0
142 2 1.669799 10.387712 7.122933 0 0 0
143 2 3.368178 9.292397 15.075526 0 0 0
144 2 1.663434 10.274423 12.701110 0 0 0
145 2 11.409169 1.031031 4.514323 0 0 0
146 2 9.639993 1.973951 2.060522 0 0 0
147 2 11.242891 0.849330 9.784308 0 0 0
148 2 9.686239 1.956626 7.144166 0 0 0
149 2 11.385916 1.032449 15.342203 0 0 0
150 2 9.847971 1.773923 12.521899 0 0 0
151 2 9.693903 3.732799 4.758499 0 0 0
152 2 8.063075 4.704474 2.083339 0 0 0
153 2 9.799646 3.840351 9.767829 0 0 0
154 2 8.212596 4.576785 7.337003 0 0 0
155 2 9.797697 3.676998 15.307660 0 0 0
156 2 8.029820 4.780300 12.465332 0 0 0
157 2 8.167389 6.594049 4.518443 0 0 0
158 2 6.440562 7.432298 2.122952 0 0 0
159 2 8.129587 6.664363 9.819327 0 0 0
160 2 6.532924 7.564487 7.236227 0 0 0
161 2 8.206621 6.486723 15.096601 0 0 0
162 2 6.454721 7.443661 12.500825 0 0 0
163 2 6.621649 9.402986 4.657565 0 0 0
164 2 4.891574 10.290848 2.000468 0 0 0
165 2 6.567349 9.368448 9.778287 0 0 0
166 2 4.984196 10.209960 7.314978 0 0 0
167 2 6.555787 9.283622 15.281040 0 0 0
168 2 4.981858 10.327074 12.535209 0 0 0
169 2 0.076644 1.826349 2.142125 0 0 0
170 2 0.126008 1.883162 7.392937 0 0 0
171 2 12.921783 1.870225 12.678768 0 0 0
172 2 11.409169 4.673087 2.098392 0 0 0
173 2 11.339670 4.680512 7.252073 0 0 0
174 2 11.320964 4.770963 12.671162 0 0 0
175 2 11.325900 6.664700 4.566771 0 0 0
176 2 9.854985 7.423973 2.129607 0 0 0
177 2 11.465028 6.564236 9.756104 0 0 0
178 2 9.815105 7.468523 7.378360 0 0 0
179 2 11.349283 6.586399 15.151742 0 0 0
180 2 9.800425 7.458736 12.692078 0 0 0
181 2 9.833811 9.437187 4.563444 0 0 0
182 2 8.215844 10.284548 2.080645 0 0 0
183 2 9.825237 9.487363 9.764660 0 0 0
184 2 8.050734 10.297036 7.377884 0 0 0
185 2 9.713389 9.290260 15.322079 0 0 0
186 2 8.036575 10.333036 12.648662 0 0 0
187 2 12.928409 7.609375 1.967510 0 0 0
188 2 12.919185 7.429148 7.330665 0 0 0
189 2 0.097429 7.560662 12.474047 0 0 0
190 2 11.492828 10.210072 1.936770 0 0 0
191 2 11.411637 10.212885 7.126736 0 0 0
192 2 11.383578 10.346649 12.466282 0 0 0
