LAMMPS DATA file

192 atoms
0 bonds
0 angles
0 dihedrals
0 impropers

2 atom types
0 bond types
0 angle types

0.0 12.990503 xlo xhi
0.0 11.250148 ylo yhi
0.0 15.845291 zlo zhi

Masses

1 69.723
2 14.0067

Atoms

1 1 1.680192 0.975017 2.533345 0 0 0
2 1 1.586011 0.912713 7.944195 0 0 0
3 1 1.544441 0.863966 13.331277 0 0 0
4 1 12.952714 3.652923 2.539208 0 0 0
5 1 0.000922 3.725937 8.045605 0 0 0
6 1 12.923835 3.689936 13.045586 0 0 0
7 1 4.858448 0.981508 2.700671 0 0 0
8 1 3.237233 1.784499 5.323542 0 0 0
9 1 4.904564 0.858521 7.822820 0 0 0
10 1 3.289845 1.836699 10.488473 0 0 0
11 1 4.848446 1.017058 13.137013 0 0 0
12 1 3.315047 1.885637 0.082396 0 0 0
13 1 3.322191 3.849913 2.512588 0 0 0
14 1 1.719033 4.766238 5.211358 0 0 0
15 1 3.178386 3.744949 7.819334 0 0 0
16 1 1.731374 4.646086 10.434124 0 0 0
17 1 3.231907 3.758562 13.056044 0 0 0
18 1 1.637193 4.708187 15.768599 0 0 0
19 1 1.602638 6.562436 2.671199 0 0 0
20 1 1.711759 6.651763 7.912980 0 0 0
21 1 1.558990 6.484248 13.237790 0 0 0
22 1 0.093187 9.463062 2.526690 0 0 0
23 1 0.025133 9.450462 8.015499 0 0 0
24 1 0.077327 9.460250 13.167753 0 0 0
25 1 8.206880 0.965870 2.542535 0 0 0
26 1 6.463165 1.921975 5.126902 0 0 0
27 1 8.062686 0.965038 7.791446 0 0 0
28 1 6.461476 1.875287 10.502100 0 0 0
29 1 8.221819 0.982959 13.078703 0 0 0
30 1 6.623858 1.974964 0.085565 0 0 0
31 1 6.526948 3.851488 2.512112 0 0 0
32 1 4.969387 4.747900 5.334951 0 0 0
33 1 6.552280 3.773975 7.801587 0 0 0
34 1 4.889106 4.652949 10.614602 0 0 0
35 1 6.453422 3.711424 13.108492 0 0 0
36 1 4.838183 4.674324 15.829287 0 0 0
37 1 4.810253 6.650413 2.492940 0 0 0
38 1 3.234375 7.589125 5.406572 0 0 0
39 1 4.783103 6.581562 7.900303 0 0 0
40 1 3.370646 7.562462 10.702543 0 0 0
41 1 4.803109 6.464448 13.113087 0 0 0
42 1 3.320762 7.604650 15.752596 0 0 0
43 1 3.347653 9.475662 2.536197 0 0 0
44 1 1.655250 10.394237 5.215636 0 0 0
45 1 3.162408 9.425599 7.944512 0 0 0
46 1 1.612511 10.302211 10.437134 0 0 0
47 1 3.117851 9.466100 13.090745 0 0 0
48 1 1.713707 10.307386 15.781592 0 0 0
49 1 11.269651 0.976310 2.766905 0 0 0
50 1 9.701957 1.808461 5.299933 0 0 0
51 1 11.377732 0.909923 7.786059 0 0 0
52 1 9.721963 1.906788 10.439511 0 0 0
53 1 11.414365 1.012075 13.311470 0 0 0
54 1 9.769118 1.943238 0.066550 0 0 0
55 1 9.795099 3.848676 2.536831 0 0 0
56 1 8.224028 4.782888 5.347469 0 0 0
57 1 9.710141 3.795575 7.816799 0 0 0
58 1 8.233381 4.626286 10.590200 0 0 0
59 1 9.619857 3.813238 13.135271 0 0 0
60 1 8.081262 4.608961 15.822790 0 0 0
61 1 8.209738 6.653113 2.611145 0 0 0
62 1 6.436015 7.546262 5.332891 0 0 0
63 1 8.191162 6.539036 7.766728 0 0 0
64 1 6.614634 7.493949 10.680043 0 0 0
65 1 8.214545 6.643888 13.160623 0 0 0
66 1 6.463035 7.526124 0.045951 0 0 0
67 1 6.441731 9.285872 2.483591 0 0 0
68 1 4.780115 10.274985 5.128487 0 0 0
69 1 6.555657 9.362373 7.886835 0 0 0
70 1 4.765566 10.386812 10.693353 0 0 0
71 1 6.579170 9.289135 13.094390 0 0 0
72 1 4.947953 10.285448 0.118840 0 0 0
73 1 0.033775 1.818136 5.377258 0 0 0
74 1 0.012991 1.808124 10.673705 0 0 0
75 1 12.918276 1.897788 15.759409 0 0 0
76 1 11.471394 4.718425 5.163663 0 0 0
77 1 11.297581 4.751725 10.675606 0 0 0
78 1 11.380720 4.777038 0.136269 0 0 0
79 1 11.314598 6.562436 2.601638 0 0 0
80 1 9.859532 7.599025 5.350321 0 0 0
81 1 11.327849 6.526323 8.008685 0 0 0
82 1 9.819391 7.466723 10.505586 0 0 0
83 1 11.342138 6.575937 13.262825 0 0 0
84 1 9.827835 7.492711 15.738652 0 0 0
85 1 9.865897 9.319510 2.624614 0 0 0
86 1 7.998383 10.230210 5.143540 0 0 0
87 1 9.816923 9.303085 7.861958 0 0 0
88 1 8.065933 10.223347 10.698265 0 0 0
89 1 9.666623 9.359673 13.056519 0 0 0
90 1 8.164791 10.225035 15.818829 0 0 0
91 1 0.087036 7.409348 5.366483 0 0 0
92 1 12.965042 7.532874 10.593052 0 0 0
93 1 12.864365 7.519262 15.814868 0 0 0
94 1 11.246009 10.348449 5.364582 0 0 0
95 1 11.282642 10.407175 10.503051 0 0 0
96 1 11.310052 10.358124 0.133100 0 0 0
97 2 1.709550 0.927383 4.597036 0 0 0
98 2 1.750860 0.887749 9.845313 0 0 0
99 2 1.606665 0.923975 15.183908 0 0 0
100 2 12.909848 3.749449 4.746615 0 0 0
101 2 12.909767 3.638973 9.818851 0 0 0
102 2 0.011132 3.756537 15.271057 0 0 0
103 2 4.908981 0.978572 4.694167 0 0 0
104 2 3.242430 1.826462 1.865149 0 0 0
105 2 4.880662 0.948117 10.011055 0 0 0
106 2 3.297509 1.921863 7.167617 0 0 0
107 2 4.825063 0.861413 15.267254 0 0 0
108 2 3.264903 1.930075 12.482445 0 0 0
109 2 3.142143 3.768462 4.495626 0 0 0
110 2 1.695261 4.735187 1.834409 0 0 0
111 2 3.172151 3.789950 9.893958 0 0 0
112 2 1.621994 4.654411 7.303411 0 0 0
113 2 3.236454 3.703886 15.297519 0 0 0
114 2 1.584192 4.793351 12.518730 0 0 0
115 2 1.630178 6.564911 4.649959 0 0 0
116 2 1.726048 6.534424 10.057164 0 0 0
117 2 1.585751 6.491448 15.211162 0 0 0
118 2 0.050239 9.379586 4.692900 0 0 0
119 2 0.105393 9.459912 9.835172 0 0 0
120 2 0.109240 9.305223 15.107692 0 0 0
121 2 8.129067 0.855101 4.540626 0 0 0
122 2 6.431988 1.833887 1.869903 0 0 0
123 2 8.031768 0.886039 9.859732 0 0 0
124 2 6.418088 1.778648 7.386282 0 0 0
125 2 8.028651 1.003727 15.332062 0 0 0
126 2 6.456670 1.775836 12.683204 0 0 0
127 2 6.567219 3.693649 4.637124 0 0 0
128 2 4.760630 4.766688 2.065751 0 0 0
129 2 6.411203 3.823475 9.761016 0 0 0
130 2 4.746210 4.735862 7.402444 0 0 0
131 2 6.509541 3.824038 15.145246 0 0 0
132 2 4.821295 4.726637 12.409081 0 0 0
133 2 4.826492 6.648838 4.598779 0 0 0
134 2 3.248145 7.467961 2.141016 0 0 0
135 2 4.862345 6.663125 9.782090 0 0 0
136 2 3.200730 7.476286 7.375190 0 0 0
137 2 4.783233 6.502586 15.084083 0 0 0
138 2 3.265423 7.421948 12.603819 0 0 0
139 2 3.350640 9.414462 4.677054 0 0 0
140 2 1.601469 10.347661 1.953883 0 0 0
141 2 3.269840 9.445287 9.966371 0 0 0
142 2 1.745534 10.265423 7.114377 0 0 0
143 2 3.224243 9.455525 15.343629 0 0 0
144 2 1.705913 10.242810 12.403852 0 0 0
145 2 11.394230 0.989383 4.483900 0 0 0
146 2 9.818742 1.851437 1.846610 0 0 0
147 2 11.397997 0.862178 9.854662 0 0 0
148 2 9.683121 1.884287 7.379944 0 0 0
149 2 11.349023 0.955070 15.075368 0 0 0
150 2 9.764052 1.913538 12.656426 0 0 0
151 2 9.777822 3.685211 4.755964 0 0 0
152 2 8.094383 4.775013 2.009975 0 0 0
153 2 9.617259 3.759125 10.020562 0 0 0
154 2 8.046967 4.718425 7.335260 0 0 0
155 2 9.699619 3.648986 15.177728 0 0 0
156 2 8.214025 4.749588 12.499557 0 0 0
157 2 8.183497 6.590674 4.699238 0 0 0
158 2 6.539419 7.496761 2.009658 0 0 0
159 2 8.197137 6.551299 9.837866 0 0 0
160 2 6.553969 7.476961 7.232741 0 0 0
161 2 8.146604 6.454323 15.251092 0 0 0
162 2 6.485898 7.560662 12.497339 0 0 0
163 2 6.407436 9.394211 4.546648 0 0 0
164 2 4.767125 10.292311 2.088568 0 0 0
165 2 6.407955 9.308935 9.781298 0 0 0
166 2 4.941587 10.421687 7.249379 0 0 0
167 2 6.399252 9.317710 15.306709 0 0 0
168 2 4.758551 10.213672 12.473571 0 0 0
169 2 12.976733 1.914438 1.910625 0 0 0
170 2 0.050663 1.887550 7.123092 0 0 0
171 2 12.903857 1.894525 12.552639 0 0 0
172 2 11.496465 4.795263 2.070029 0 0 0
173 2 11.297581 4.740812 7.320683 0 0 0
174 2 11.398387 4.767588 12.564999 0 0 0
175 2 11.471913 6.454098 4.654237 0 0 0
176 2 9.685979 7.554925 1.896047 0 0 0
177 2 11.250036 6.513498 9.792706 0 0 0
178 2 9.731706 7.437810 7.284714 0 0 0
179 2 11.255232 6.471985 15.134946 0 0 0
180 2 9.776393 7.556725 12.532516 0 0 0
181 2 9.673118 9.390386 4.536031 0 0 0
182 2 8.059828 10.239660 2.073515 0 0 0
183 2 9.634277 9.386111 9.982375 0 0 0
184 2 8.158815 10.347099 7.327655 0 0 0
185 2 9.641811 9.343136 15.222571 0 0 0
186 2 8.079573 10.382874 12.428412 0 0 0
187 2 12.968679 7.566400 2.105522 0 0 0
188 2 12.952311 7.571012 7.148444 0 0 0
189 2 12.951012 7.491249 12.535526 0 0 0
190 2 11.337072 10.214122 1.961013 0 0 0
191 2 11.494257 10.382087 7.283605 0 0 0
192 2 11.446322 10.302661 12.577358 0 0 0
