LAMMPS DATA file generated by structure.cpp

64 atoms

1 atom types

0.0 10.862000 xlo xhi
0.0 10.862000 ylo yhi
0.0 10.862000 zlo zhi

Masses

1 28.0855

Atoms

1 1 6.788750000000000 1.357750000000000 1.357750000000000
2 1 9.504250000000001 4.073250000000000 1.357750000000000
3 1 9.504250000000001 1.357750000000000 4.073250000000000
4 1 1.357750000000000 1.357750000000000 1.357750000000000
5 1 4.073250000000000 4.073250000000000 1.357750000000000
6 1 6.788750000000000 6.788750000000000 1.357750000000000
7 1 9.504250000000001 9.504250000000001 1.357750000000000
8 1 4.073250000000000 1.357750000000000 4.073250000000000
9 1 6.788750000000000 4.073250000000000 4.073250000000000
10 1 9.504250000000001 6.788750000000000 4.073250000000000
11 1 6.788750000000000 1.357750000000000 6.788750000000000
12 1 9.504250000000001 4.073250000000000 6.788750000000000
13 1 9.504250000000001 1.357750000000000 9.504250000000001
14 1 1.357750000000000 6.788750000000000 1.357750000000000
15 1 4.073250000000000 9.504250000000001 1.357750000000000
16 1 1.357750000000000 4.073250000000000 4.073250000000000
17 1 4.073250000000000 6.788750000000000 4.073250000000000
18 1 6.788750000000000 9.504250000000001 4.073250000000000
19 1 1.357750000000000 1.357750000000000 6.788750000000000
20 1 4.073250000000000 4.073250000000000 6.788750000000000
21 1 6.788750000000000 6.788750000000000 6.788750000000000
22 1 9.504250000000001 9.504250000000001 6.788750000000000
23 1 4.073250000000000 1.357750000000000 9.504250000000001
24 1 6.788750000000000 4.073250000000000 9.504250000000001
25 1 9.504250000000001 6.788750000000000 9.504250000000001
26 1 1.357750000000000 9.504250000000001 4.073250000000000
27 1 1.357750000000000 6.788750000000000 6.788750000000000
28 1 4.073250000000000 9.504250000000001 6.788750000000000
29 1 1.357750000000000 4.073250000000000 9.504250000000001
30 1 4.073250000000000 6.788750000000000 9.504250000000001
31 1 6.788750000000000 9.504250000000001 9.504250000000001
32 1 1.357750000000000 9.504250000000001 9.504250000000001
33 1 5.431000000000000 0.000001000000000 0.000001000000000
34 1 8.146500000000000 2.715500000000000 0.000001000000000
35 1 8.146500000000000 0.000001000000000 2.715500000000000
36 1 0.000001000000000 0.000001000000000 0.000001000000000
37 1 2.715500000000000 2.715500000000000 0.000001000000000
38 1 5.431000000000000 5.431000000000000 0.000001000000000
39 1 8.146500000000000 8.146500000000000 0.000001000000000
40 1 2.715500000000000 0.000001000000000 2.715500000000000
41 1 5.431000000000000 2.715500000000000 2.715500000000000
42 1 8.146500000000000 5.431000000000000 2.715500000000000
43 1 5.431000000000000 0.000001000000000 5.431000000000000
44 1 8.146500000000000 2.715500000000000 5.431000000000000
45 1 8.146500000000000 0.000001000000000 8.146500000000000
46 1 0.000001000000000 5.431000000000000 0.000001000000000
47 1 2.715500000000000 8.146500000000000 0.000001000000000
48 1 0.000001000000000 2.715500000000000 2.715500000000000
49 1 2.715500000000000 5.431000000000000 2.715500000000000
50 1 5.431000000000000 8.146500000000000 2.715500000000000
51 1 0.000001000000000 0.000001000000000 5.431000000000000
52 1 2.715500000000000 2.715500000000000 5.431000000000000
53 1 5.431000000000000 5.431000000000000 5.431000000000000
54 1 8.146500000000000 8.146500000000000 5.431000000000000
55 1 2.715500000000000 0.000001000000000 8.146500000000000
56 1 5.431000000000000 2.715500000000000 8.146500000000000
57 1 8.146500000000000 5.431000000000000 8.146500000000000
58 1 0.000001000000000 8.146500000000000 2.715500000000000
59 1 0.000001000000000 5.431000000000000 5.431000000000000
60 1 2.715500000000000 8.146500000000000 5.431000000000000
61 1 0.000001000000000 2.715500000000000 8.146500000000000
62 1 2.715500000000000 5.431000000000000 8.146500000000000
63 1 5.431000000000000 8.146500000000000 8.146500000000000
64 1 0.000001000000000 8.146500000000000 8.146500000000000
