64
Lattice="1.086200e+01 0.0 0.0 0.0 1.086200e+01 0.0 0.0 0.0 1.086200e+01" Properties=species:S:1:pos:r:3:forces:r:3 energy=-2.975970e+02 stress="-2.787423e+02 -2.787423e+02 -2.787423e+02 1.411579e-01 1.411579e-01 1.411579e-01" pbc="T T T"
Si 6.788750e+00 1.357750e+00 1.357750e+00 6.501040e-13 1.004240e-05 1.004240e-05
Si 9.504250e+00 4.073250e+00 1.357750e+00 1.004240e-05 6.649150e-13 1.004240e-05
Si 9.504250e+00 1.357750e+00 4.073250e+00 1.004240e-05 1.004240e-05 6.652230e-13
Si 1.357750e+00 1.357750e+00 1.357750e+00 1.004240e-05 1.004240e-05 1.004240e-05
Si 4.073250e+00 4.073250e+00 1.357750e+00 4.378900e-15 4.378980e-15 1.004240e-05
Si 6.788750e+00 6.788750e+00 1.357750e+00 -6.892340e-15 -6.892350e-15 1.004240e-05
Si 9.504250e+00 9.504250e+00 1.357750e+00 1.004240e-05 1.004240e-05 1.004240e-05
Si 4.073250e+00 1.357750e+00 4.073250e+00 4.344640e-15 1.004240e-05 4.310460e-15
Si 6.788750e+00 4.073250e+00 4.073250e+00 -8.020760e-15 7.369690e-15 2.584350e-15
Si 9.504250e+00 6.788750e+00 4.073250e+00 1.004240e-05 -9.430950e-15 3.105510e-15
Si 6.788750e+00 1.357750e+00 6.788750e+00 -7.131660e-15 1.004240e-05 -6.721000e-15
Si 9.504250e+00 4.073250e+00 6.788750e+00 1.004240e-05 3.071170e-15 -9.225710e-15
Si 9.504250e+00 1.357750e+00 9.504250e+00 1.004240e-05 1.004240e-05 1.004240e-05
Si 1.357750e+00 6.788750e+00 1.357750e+00 1.004240e-05 6.501040e-13 1.004240e-05
Si 4.073250e+00 9.504250e+00 1.357750e+00 6.649150e-13 1.004240e-05 1.004240e-05
Si 1.357750e+00 4.073250e+00 4.073250e+00 1.004240e-05 4.344720e-15 4.310570e-15
Si 4.073250e+00 6.788750e+00 4.073250e+00 7.369760e-15 -8.020910e-15 2.584540e-15
Si 6.788750e+00 9.504250e+00 4.073250e+00 -9.431100e-15 1.004240e-05 3.105520e-15
Si 1.357750e+00 1.357750e+00 6.788750e+00 1.004240e-05 1.004240e-05 6.502070e-13
Si 4.073250e+00 4.073250e+00 6.788750e+00 4.994370e-15 4.994410e-15 -5.131320e-15
Si 6.788750e+00 6.788750e+00 6.788750e+00 -8.397040e-15 -8.397040e-15 -8.259990e-15
Si 9.504250e+00 9.504250e+00 6.788750e+00 1.004240e-05 1.004240e-05 6.568740e-13
Si 4.073250e+00 1.357750e+00 9.504250e+00 6.651200e-13 1.004240e-05 1.004240e-05
Si 6.788750e+00 4.073250e+00 9.504250e+00 -9.225750e-15 2.934350e-15 1.004240e-05
Si 9.504250e+00 6.788750e+00 9.504250e+00 1.004240e-05 6.551730e-13 1.004240e-05
Si 1.357750e+00 9.504250e+00 4.073250e+00 1.004240e-05 1.004240e-05 6.652230e-13
Si 1.357750e+00 6.788750e+00 6.788750e+00 1.004240e-05 -7.131820e-15 -6.720590e-15
Si 4.073250e+00 9.504250e+00 6.788750e+00 3.071000e-15 1.004240e-05 -9.225350e-15
Si 1.357750e+00 4.073250e+00 9.504250e+00 1.004240e-05 6.651200e-13 1.004240e-05
Si 4.073250e+00 6.788750e+00 9.504250e+00 2.934260e-15 -9.225640e-15 1.004240e-05
Si 6.788750e+00 9.504250e+00 9.504250e+00 6.551730e-13 1.004240e-05 1.004240e-05
Si 1.357750e+00 9.504250e+00 9.504250e+00 1.004240e-05 1.004240e-05 1.004240e-05
Si 5.431000e+00 1.000000e-06 1.000000e-06 7.756480e-12 -2.089200e-05 -2.089200e-05
Si 8.146500e+00 2.715500e+00 1.000000e-06 4.035910e-07 4.035910e-07 -2.089200e-05
Si 8.146500e+00 1.000000e-06 2.715500e+00 4.035910e-07 -2.089200e-05 4.035910e-07
Si 1.000000e-06 1.000000e-06 1.000000e-06 -2.089200e-05 -2.089200e-05 -2.089200e-05
Si 2.715500e+00 2.715500e+00 1.000000e-06 4.035920e-07 4.035920e-07 -2.089200e-05
Si 5.431000e+00 5.431000e+00 1.000000e-06 -2.052130e-16 -2.054940e-16 -2.089200e-05
Si 8.146500e+00 8.146500e+00 1.000000e-06 4.035900e-07 4.035900e-07 -2.089200e-05
Si 2.715500e+00 1.000000e-06 2.715500e+00 4.035920e-07 -2.089200e-05 4.035920e-07
Si 5.431000e+00 2.715500e+00 2.715500e+00 4.337080e-13 4.035950e-07 4.035950e-07
Si 8.146500e+00 5.431000e+00 2.715500e+00 4.035940e-07 4.307780e-13 4.035940e-07
Si 5.431000e+00 1.000000e-06 5.431000e+00 -1.367590e-16 -2.089200e-05 -2.052300e-16
Si 8.146500e+00 2.715500e+00 5.431000e+00 4.035940e-07 4.035940e-07 4.331540e-13
Si 8.146500e+00 1.000000e-06 8.146500e+00 4.035900e-07 -2.089200e-05 4.035900e-07
Si 1.000000e-06 5.431000e+00 1.000000e-06 -2.089200e-05 7.756480e-12 -2.089200e-05
Si 2.715500e+00 8.146500e+00 1.000000e-06 4.035910e-07 4.035910e-07 -2.089200e-05
Si 1.000000e-06 2.715500e+00 2.715500e+00 -2.089200e-05 4.035920e-07 4.035920e-07
Si 2.715500e+00 5.431000e+00 2.715500e+00 4.035950e-07 4.337080e-13 4.035950e-07
Si 5.431000e+00 8.146500e+00 2.715500e+00 4.307780e-13 4.035940e-07 4.035940e-07
Si 1.000000e-06 1.000000e-06 5.431000e+00 -2.089200e-05 -2.089200e-05 7.756520e-12
Si 2.715500e+00 2.715500e+00 5.431000e+00 4.035950e-07 4.035950e-07 4.336390e-13
Si 5.431000e+00 5.431000e+00 5.431000e+00 -2.738230e-16 -2.737140e-16 2.636920e-19
Si 8.146500e+00 8.146500e+00 5.431000e+00 4.035930e-07 4.035930e-07 4.304170e-13
Si 2.715500e+00 1.000000e-06 8.146500e+00 4.035910e-07 -2.089200e-05 4.035910e-07
Si 5.431000e+00 2.715500e+00 8.146500e+00 4.308120e-13 4.035940e-07 4.035940e-07
Si 8.146500e+00 5.431000e+00 8.146500e+00 4.035930e-07 4.304510e-13 4.035930e-07
Si 1.000000e-06 8.146500e+00 2.715500e+00 -2.089200e-05 4.035910e-07 4.035910e-07
Si 1.000000e-06 5.431000e+00 5.431000e+00 -2.089200e-05 -1.371920e-16 -2.054470e-16
Si 2.715500e+00 8.146500e+00 5.431000e+00 4.035940e-07 4.035940e-07 4.331540e-13
Si 1.000000e-06 2.715500e+00 8.146500e+00 -2.089200e-05 4.035910e-07 4.035910e-07
Si 2.715500e+00 5.431000e+00 8.146500e+00 4.035940e-07 4.308120e-13 4.035940e-07
Si 5.431000e+00 8.146500e+00 8.146500e+00 4.304510e-13 4.035930e-07 4.035930e-07
Si 1.000000e-06 8.146500e+00 8.146500e+00 -2.089200e-05 4.035900e-07 4.035900e-07
64
Lattice="1.086200e+01 0.0 0.0 0.0 1.086200e+01 0.0 0.0 0.0 1.086200e+01" Properties=species:S:1:pos:r:3:forces:r:3 energy=-2.973357e+02 stress="-4.494921e+02 -4.882927e+02 -4.611320e+02 5.209242e+02 -7.376162e+02 -1.333271e+03" pbc="T T T"
Si 6.774060e+00 1.335240e+00 1.352120e+00 3.344040e-01 1.920420e-01 -2.686240e-02
Si 9.497420e+00 4.055040e+00 1.348420e+00 4.427350e-01 1.585710e-02 2.275950e-01
Si 9.509330e+00 1.369110e+00 4.073210e+00 -1.050820e-01 -3.443160e-01 -1.126250e-01
Si 1.347740e+00 1.367230e+00 1.366320e+00 4.270720e-01 -2.484950e-01 -1.945970e-01
Si 4.062330e+00 4.089400e+00 1.361340e+00 3.781560e-01 -1.705150e-01 1.481850e-01
Si 6.789110e+00 6.797830e+00 1.367110e+00 -1.529950e-01 9.925290e-03 -4.702200e-02
Si 9.485240e+00 9.505390e+00 1.374270e+00 1.987780e-01 1.134100e-01 -3.338250e-01
Si 4.085840e+00 1.334480e+00 4.078880e+00 -1.586690e-01 4.672400e-01 -1.977740e-01
Si 6.800900e+00 4.082530e+00 4.075200e+00 -1.802160e-01 -1.026080e-01 -1.093840e-01
Si 9.500720e+00 6.764120e+00 4.078380e+00 2.270340e-02 5.108840e-01 -1.903860e-01
Si 6.781270e+00 1.372510e+00 6.789060e+00 2.772900e-01 -3.472700e-01 -2.776500e-01
Si 9.485340e+00 4.089290e+00 6.801910e+00 3.905680e-01 -3.924840e-01 -3.761870e-01
Si 9.509350e+00 1.357360e+00 9.517220e+00 1.984430e-01 -8.672190e-02 -3.029010e-01
Si 1.365330e+00 6.796410e+00 1.344500e+00 -2.491480e-01 -1.096270e-01 3.050610e-01
Si 4.060800e+00 9.489490e+00 1.342830e+00 -3.457820e-02 3.489410e-01 3.013740e-01
Si 1.338440e+00 4.070050e+00 4.070450e+00 3.645470e-01 -3.185200e-02 2.775640e-01
Si 4.083170e+00 6.777530e+00 4.063240e+00 -2.329740e-01 1.933350e-01 -8.967140e-03
Si 6.805090e+00 9.501000e+00 4.089890e+00 -3.467140e-01 -6.729100e-03 -2.527350e-01
Si 1.359540e+00 1.373990e+00 6.784670e+00 -1.124570e-01 -3.705850e-01 1.485020e-01
Si 4.084020e+00 4.090340e+00 6.782560e+00 -2.723360e-01 -4.574310e-01 2.612140e-01
Si 6.784630e+00 6.781430e+00 6.808030e+00 -7.256060e-02 2.569370e-01 -5.026110e-01
Si 9.519810e+00 9.500140e+00 6.785480e+00 -2.270550e-01 3.611980e-01 -1.835150e-01
Si 4.082150e+00 1.367040e+00 9.480750e+00 -2.574760e-01 -3.404040e-01 5.388930e-01
Si 6.783840e+00 4.077700e+00 9.508690e+00 1.768280e-01 -1.764790e-01 -4.314340e-02
Si 9.507480e+00 6.790130e+00 9.501840e+00 -1.824520e-01 1.274510e-02 -2.323360e-03
Si 1.371570e+00 9.507420e+00 4.081420e+00 -2.668810e-01 -9.804870e-02 -1.481610e-01
Si 1.344010e+00 6.801870e+00 6.805520e+00 2.886250e-01 -1.369890e-01 -3.396530e-01
Si 4.092640e+00 9.519730e+00 6.793260e+00 -2.336800e-01 -5.107850e-01 -2.376580e-01
Si 1.361730e+00 4.067500e+00 9.516030e+00 1.463850e-01 1.173680e-01 -1.888540e-01
Si 4.071490e+00 6.768040e+00 9.489810e+00 -1.817720e-01 5.245470e-01 5.717650e-01
Si 6.785230e+00 9.494650e+00 9.514410e+00 4.391710e-02 2.670220e-01 -3.710990e-01
Si 1.348490e+00 9.520510e+00 9.483970e+00 1.466260e-01 -3.492930e-01 1.064180e-01
Si 5.419320e+00 -1.499160e-02 -1.140610e-03 -5.487140e-02 1.302300e-01 -1.983420e-01
Si 8.161100e+00 2.706050e+00 3.019390e-03 -5.156020e-01 -5.041160e-02 -5.230160e-02
Si 8.135260e+00 -3.119760e-04 2.731720e+00 1.435740e-01 1.037110e-01 -9.371960e-02
Si 1.383520e-02 -1.611900e-02 -7.607590e-03 -3.846970e-01 2.907940e-01 3.406340e-01
Si 2.736040e+00 2.732480e+00 5.849050e-03 -2.945480e-01 -3.611140e-01 -6.762120e-02
Si 5.428630e+00 5.436880e+00 7.527400e-03 1.552090e-02 -3.965790e-03 -4.074180e-02
Si 8.130350e+00 8.158070e+00 -7.848240e-04 3.112150e-01 -2.804760e-01 1.282520e-01
Si 2.715530e+00 -7.457410e-03 2.721070e+00 4.913290e-02 8.723070e-02 -2.141570e-01
Si 5.451510e+00 2.712500e+00 2.704610e+00 -4.202980e-01 7.208060e-02 2.184860e-01
Si 8.155280e+00 5.416650e+00 2.696720e+00 -1.271420e-01 1.660260e-01 2.130150e-01
Si 5.437290e+00 -5.680610e-03 5.415220e+00 2.041230e-01 9.571260e-02 4.259620e-01
Si 8.160670e+00 2.707760e+00 5.409810e+00 -2.508200e-01 3.545310e-01 4.975910e-01
Si 8.160550e+00 5.810080e-03 8.134380e+00 -2.674230e-01 -1.249730e-01 2.656940e-01
Si 7.647880e-03 5.420600e+00 -5.145830e-04 -1.618500e-01 1.283140e-01 2.138800e-02
Si 2.696790e+00 8.162080e+00 8.932220e-03 2.620200e-01 -3.538150e-01 -7.218520e-01
Si 6.569290e-03 2.696200e+00 2.732680e+00 -3.195330e-01 4.125260e-01 -3.808240e-01
Si 2.711530e+00 5.433600e+00 2.722410e+00 -1.346090e-01 -6.963030e-04 -1.143550e-01
Si 5.411390e+00 8.164620e+00 2.720040e+00 4.449760e-01 -2.504860e-01 -4.406590e-03
Si -2.259380e-03 1.749920e-02 5.420230e+00 1.917940e-01 -1.962560e-01 2.055370e-01
Si 2.706920e+00 2.701510e+00 5.446440e+00 3.304330e-01 3.897830e-01 -4.304970e-01
Si 5.411090e+00 5.442580e+00 5.427800e+00 6.098730e-01 -1.273980e-01 1.082400e-02
Si 8.149140e+00 8.157840e+00 5.441760e+00 5.256310e-02 -5.041020e-01 3.447410e-02
Si 2.717700e+00 -1.789760e-03 8.137130e+00 -1.218330e-02 2.859230e-01 -6.232220e-02
Si 5.430850e+00 2.691860e+00 8.155290e+00 7.240480e-02 7.673650e-01 -2.914340e-01
Si 8.141850e+00 5.435320e+00 8.125650e+00 -6.710490e-02 -1.724830e-02 6.655050e-01
Si -3.259340e-03 8.156130e+00 2.706950e+00 4.324520e-02 -2.801160e-01 3.122760e-01
Si -3.128750e-03 5.435830e+00 5.436990e+00 -3.274120e-02 -1.283390e-01 1.497290e-01
Si 2.729470e+00 8.129070e+00 5.413840e+00 -2.982690e-02 2.963410e-01 5.047940e-01
Si 1.002400e-02 2.720290e+00 8.147040e+00 -2.817650e-01 6.512810e-02 1.146120e-01
Si 2.717390e+00 5.437270e+00 8.152830e+00 -2.096500e-01 -2.155860e-01 -1.684820e-01
Si 5.429220e+00 8.131370e+00 8.157200e+00 2.959850e-02 2.208110e-01 -6.519150e-02
Si -1.638540e-02 8.157960e+00 8.132190e+00 2.341610e-01 -8.234270e-02 3.588380e-01
64
Lattice="1.086200e+01 0.0 0.0 0.0 1.086200e+01 0.0 0.0 0.0 1.086200e+01" Properties=species:S:1:pos:r:3:forces:r:3 energy=-2.967770e+02 stress="-7.972163e+02 -9.152015e+02 -8.046284e+02 9.076309e+02 -1.144879e+03 -2.171255e+03" pbc="T T T"
Si 6.762170e+00 1.314360e+00 1.346290e+00 5.686440e-01 3.593690e-01 -2.839990e-02
Si 9.494300e+00 4.036990e+00 1.341000e+00 7.430530e-01 6.011550e-02 3.865550e-01
Si 9.513520e+00 1.377590e+00 4.072250e+00 -1.948210e-01 -5.944860e-01 -1.737830e-01
Si 1.341310e+00 1.374630e+00 1.373250e+00 7.422080e-01 -4.341640e-01 -3.489230e-01
Si 4.054590e+00 4.104090e+00 1.366180e+00 6.590540e-01 -3.285300e-01 2.481950e-01
Si 6.788200e+00 6.806990e+00 1.376060e+00 -2.517110e-01 -6.966840e-03 -9.607220e-02
Si 9.467920e+00 9.507470e+00 1.387990e+00 3.743410e-01 1.833330e-01 -5.742580e-01
Si 4.097080e+00 1.315170e+00 4.082840e+00 -2.810540e-01 8.424780e-01 -3.483820e-01
Si 6.811520e+00 4.090940e+00 4.076230e+00 -3.262520e-01 -1.906710e-01 -1.907860e-01
Si 9.497390e+00 6.743790e+00 4.081930e+00 4.727550e-02 9.026700e-01 -3.178490e-01
Si 6.776130e+00 1.384350e+00 6.787060e+00 5.018000e-01 -6.059290e-01 -4.500290e-01
Si 9.469720e+00 4.102020e+00 6.811920e+00 6.899470e-01 -6.895490e-01 -6.298910e-01
Si 9.516090e+00 1.356250e+00 9.527640e+00 3.051860e-01 -1.452330e-01 -5.334380e-01
Si 1.370800e+00 6.803150e+00 1.333800e+00 -4.483100e-01 -1.991430e-01 5.285830e-01
Si 4.048080e+00 9.477650e+00 1.330430e+00 -3.750640e-02 5.997090e-01 5.131770e-01
Si 1.322210e+00 4.066590e+00 4.069990e+00 6.490860e-01 -3.802660e-02 4.817590e-01
Si 4.091140e+00 6.767940e+00 4.053160e+00 -4.132040e-01 3.508220e-01 9.844980e-03
Si 6.818510e+00 9.497680e+00 4.104390e+00 -5.973650e-01 -1.741990e-02 -4.467170e-01
Si 1.360380e+00 1.387130e+00 6.781830e+00 -1.884580e-01 -6.210520e-01 2.468390e-01
Si 4.092500e+00 4.103600e+00 6.778560e+00 -4.804370e-01 -7.845530e-01 4.414430e-01
Si 6.779920e+00 6.776270e+00 6.823080e+00 -1.040520e-01 4.446000e-01 -8.723350e-01
Si 9.533450e+00 9.499050e+00 6.780680e+00 -4.213800e-01 6.181000e-01 -2.989830e-01
Si 4.088880e+00 1.373490e+00 9.461780e+00 -4.508540e-01 -5.691830e-01 9.415080e-01
Si 6.780400e+00 4.080680e+00 9.512770e+00 2.982190e-01 -2.943790e-01 -6.145540e-02
Si 9.509180e+00 6.791610e+00 9.499430e+00 -3.232950e-01 2.137830e-02 2.562170e-02
Si 1.383140e+00 9.509750e+00 4.088350e+00 -4.670280e-01 -1.785180e-01 -2.597540e-01
Si 1.332700e+00 6.813840e+00 6.819430e+00 5.179850e-01 -2.565230e-01 -6.031880e-01
Si 4.110050e+00 9.530920e+00 6.795780e+00 -4.216950e-01 -8.903700e-01 -3.951060e-01
Si 1.366920e+00 4.062740e+00 9.526220e+00 2.306200e-01 2.113230e-01 -3.385200e-01
Si 4.068220e+00 6.751750e+00 9.480160e+00 -3.110300e-01 9.230630e-01 9.849980e-01
Si 6.782090e+00 9.487300e+00 9.521450e+00 8.943660e-02 4.694530e-01 -6.514010e-01
Si 1.340460e+00 9.533840e+00 9.464610e+00 2.606310e-01 -5.985710e-01 2.078960e-01
Si 5.407200e+00 -2.887880e-02 -3.941250e-03 -7.198630e-02 2.421520e-01 -3.349000e-01
Si 8.171380e+00 2.696190e+00 5.589070e-03 -8.808170e-01 -8.701290e-02 -1.037850e-01
Si 8.125240e+00 2.303500e-04 2.747130e+00 2.622430e-01 1.584230e-01 -2.010660e-01
Si 2.444460e-02 -2.978750e-02 -1.235110e-02 -6.595620e-01 5.181830e-01 5.970650e-01
Si 2.754100e+00 2.746410e+00 1.113510e-02 -5.205280e-01 -6.549070e-01 -1.093800e-01
Si 5.426390e+00 5.442730e+00 1.470890e-02 3.447730e-02 -1.329570e-02 -7.470580e-02
Si 8.116830e+00 8.167280e+00 -5.040350e-04 5.513070e-01 -4.900870e-01 2.083460e-01
Si 2.715970e+00 -1.417120e-02 2.724850e+00 7.657700e-02 1.679600e-01 -3.635860e-01
Si 5.468490e+00 2.710110e+00 2.695560e+00 -7.455480e-01 1.252910e-01 3.901550e-01
Si 8.162990e+00 5.403700e+00 2.679740e+00 -2.264460e-01 3.119490e-01 3.800750e-01
Si 5.445260e+00 -1.055550e-02 5.403010e+00 3.199000e-01 1.701790e-01 7.460020e-01
Si 8.172730e+00 2.703000e+00 5.392790e+00 -4.481550e-01 6.141820e-01 8.653580e-01
Si 8.172340e+00 1.057210e-02 8.124490e+00 -4.750180e-01 -2.134890e-01 4.632440e-01
Si 1.392870e-02 5.411280e+00 -8.539930e-04 -2.902630e-01 2.367630e-01 3.235130e-02
Si 2.680280e+00 8.174670e+00 1.181890e-02 4.640960e-01 -6.284810e-01 -1.227860e+00
Si 1.047690e-02 2.680370e+00 2.746640e+00 -5.231610e-01 7.172650e-01 -6.739780e-01
Si 2.706420e+00 5.436190e+00 2.728350e+00 -2.329380e-01 -1.279390e-02 -2.043590e-01
Si 5.395520e+00 8.180630e+00 2.724530e+00 7.719730e-01 -4.475260e-01 -1.581850e-02
Si -2.904510e-03 3.333000e-02 5.411180e+00 3.391330e-01 -3.672640e-01 3.584030e-01
Si 2.701130e+00 2.690790e+00 5.458250e+00 5.831730e-01 6.674120e-01 -7.585390e-01
Si 5.396300e+00 5.453070e+00 5.424680e+00 1.063380e+00 -2.550790e-01 1.800580e-02
Si 8.152220e+00 8.164960e+00 5.452780e+00 8.613910e-02 -8.638750e-01 1.937400e-02
Si 2.719810e+00 -1.200970e-03 8.127240e+00 -1.890330e-02 4.664420e-01 -1.040870e-01
Si 5.431320e+00 2.674660e+00 8.161620e+00 1.283850e-01 1.316640e+00 -5.062270e-01
Si 8.136630e+00 5.439490e+00 8.110390e+00 -1.087390e-01 -4.271030e-02 1.159880e+00
Si -6.162250e-03 8.163410e+00 2.701020e+00 6.722590e-02 -4.805570e-01 5.492170e-01
Si -6.526350e-03 5.439580e+00 5.444210e+00 -4.709930e-02 -2.178420e-01 2.305580e-01
Si 2.743160e+00 8.114140e+00 5.400920e+00 -8.443320e-02 5.370590e-01 8.845830e-01
Si 1.768460e-02 2.725630e+00 8.148530e+00 -4.837050e-01 1.030130e-01 1.897670e-01
Si 2.717530e+00 5.441730e+00 8.157740e+00 -3.494370e-01 -3.661440e-01 -2.920840e-01
Si 5.427670e+00 8.118110e+00 8.167330e+00 3.836860e-02 4.011280e-01 -1.357960e-01
Si -3.079450e-02 8.168730e+00 8.120890e+00 4.213290e-01 -1.561160e-01 6.166300e-01
64
Lattice="1.086200e+01 0.0 0.0 0.0 1.086200e+01 0.0 0.0 0.0 1.086200e+01" Properties=species:S:1:pos:r:3:forces:r:3 energy=-2.963778e+02 stress="-9.601106e+02 -1.132312e+03 -9.250991e+02 9.939369e+02 -1.142918e+03 -2.272066e+03" pbc="T T T"
Si 6.755040e+00 1.296530e+00 1.340230e+00 6.335050e-01 4.828910e-01 7.670340e-03
Si 9.497380e+00 4.019490e+00 1.336820e+00 8.011290e-01 1.548570e-01 4.280480e-01
Si 9.516060e+00 1.381080e+00 4.069850e+00 -2.553580e-01 -6.801690e-01 -1.485700e-01
Si 1.341120e+00 1.378360e+00 1.377240e+00 8.611140e-01 -5.223460e-01 -4.259590e-01
Si 4.052390e+00 4.115980e+00 1.373080e+00 7.726390e-01 -4.548870e-01 2.667450e-01
Si 6.785180e+00 6.816040e+00 1.384180e+00 -2.664400e-01 -6.661500e-02 -1.493540e-01
Si 9.453790e+00 9.511070e+00 1.396880e+00 5.122610e-01 1.783620e-01 -6.605140e-01
Si 4.105960e+00 1.302960e+00 4.083870e+00 -3.468280e-01 1.047950e+00 -4.150060e-01
Si 6.819380e+00 4.097730e+00 4.075650e+00 -4.163710e-01 -2.625880e-01 -2.325780e-01
Si 9.494460e+00 6.731070e+00 4.082810e+00 7.358890e-02 1.088680e+00 -3.487920e-01
Si 6.775230e+00 1.391110e+00 6.781320e+00 6.387540e-01 -7.015860e-01 -4.539760e-01
Si 9.459920e+00 4.108960e+00 6.816670e+00 8.345470e-01 -8.175450e-01 -6.799370e-01
Si 9.525350e+00 1.353930e+00 9.533560e+00 2.645250e-01 -1.568750e-01 -6.444030e-01
Si 1.372480e+00 6.808200e+00 1.327550e+00 -5.645520e-01 -2.492960e-01 6.134050e-01
Si 4.035070e+00 9.470840e+00 1.322340e+00 1.070770e-02 6.874530e-01 5.834400e-01
Si 1.311440e+00 4.062840e+00 4.073570e+00 7.904270e-01 -4.793220e-03 5.577750e-01
Si 4.095620e+00 6.761330e+00 4.043210e+00 -4.991290e-01 4.521480e-01 8.016010e-02
Si 6.826920e+00 9.494210e+00 4.115140e+00 -6.974080e-01 -3.969980e-02 -5.347880e-01
Si 1.359650e+00 1.395070e+00 6.781050e+00 -2.063020e-01 -6.767110e-01 2.658300e-01
Si 4.096930e+00 4.110270e+00 6.778240e+00 -5.729660e-01 -9.018020e-01 4.795720e-01
Si 6.774360e+00 6.774850e+00 6.830810e+00 -8.018350e-02 5.138410e-01 -1.004490e+00
Si 9.543510e+00 9.503160e+00 6.773390e+00 -5.555100e-01 7.077060e-01 -2.967010e-01
Si 4.091820e+00 1.375170e+00 9.450730e+00 -5.377220e-01 -6.222290e-01 1.117480e+00
Si 6.779470e+00 4.081190e+00 9.516350e+00 3.255510e-01 -3.234350e-01 -4.164040e-02
Si 9.508150e+00 6.793270e+00 9.497270e+00 -3.804740e-01 1.967700e-02 9.186120e-02
Si 1.390780e+00 9.510570e+00 4.093090e+00 -5.565620e-01 -2.324320e-01 -3.054250e-01
Si 1.325760e+00 6.823610e+00 6.828250e+00 6.391540e-01 -3.486350e-01 -7.387350e-01
Si 4.123900e+00 9.534620e+00 6.795000e+00 -5.312020e-01 -1.042540e+00 -4.273850e-01
Si 1.374020e+00 4.059770e+00 9.533550e+00 2.165660e-01 2.610740e-01 -4.220080e-01
Si 4.062340e+00 6.743220e+00 9.478780e+00 -3.349650e-01 1.089490e+00 1.121240e+00
Si 6.779710e+00 9.483890e+00 9.523010e+00 1.265050e-01 5.523790e-01 -7.733280e-01
Si 1.334640e+00 9.542150e+00 9.447030e+00 3.215430e-01 -6.755930e-01 3.100550e-01
Si 5.394520e+00 -4.071010e-02 -9.539800e-03 -2.126070e-02 3.208960e-01 -3.625910e-01
Si 8.174280e+00 2.685590e+00 7.270020e-03 -9.921970e-01 -9.703780e-02 -1.512830e-01
Si 8.117430e+00 2.078690e-03 2.760800e+00 3.323490e-01 1.373990e-01 -3.255880e-01
Si 2.952400e-02 -3.908100e-02 -1.207590e-02 -7.476080e-01 6.406470e-01 7.011600e-01
Si 2.767760e+00 2.754810e+00 1.550580e-02 -6.369500e-01 -8.194470e-01 -1.177770e-01
Si 5.424450e+00 5.448450e+00 2.125250e-02 6.024180e-02 -3.125620e-02 -1.033360e-01
Si 8.107950e+00 8.172370e+00 1.516130e-03 6.667510e-01 -5.768990e-01 2.189620e-01
Si 2.717050e+00 -1.945160e-02 2.725590e+00 7.234340e-02 2.356640e-01 -4.033890e-01
Si 5.479180e+00 2.708770e+00 2.689800e+00 -8.961110e-01 1.414550e-01 4.831100e-01
Si 8.168790e+00 5.393420e+00 2.665980e+00 -2.769450e-01 4.247690e-01 4.825910e-01
Si 5.455890e+00 -1.399850e-02 5.397090e+00 2.999670e-01 2.036510e-01 8.891240e-01
Si 8.181000e+00 2.703390e+00 5.383060e+00 -5.569400e-01 7.071830e-01 1.020180e+00
Si 8.180130e+00 1.354470e-02 8.118490e+00 -5.759670e-01 -2.405110e-01 5.429910e-01
Si 1.775640e-02 5.403980e+00 -9.262830e-04 -3.632000e-01 3.146370e-01 2.837310e-02
Si 2.667680e+00 8.181970e+00 4.427750e-03 5.490650e-01 -7.568300e-01 -1.361770e+00
Si 1.003450e-02 2.670570e+00 2.754930e+00 -5.281980e-01 8.385400e-01 -8.191050e-01
Si 2.699360e+00 5.438660e+00 2.732560e+00 -2.681470e-01 -4.241170e-02 -2.514710e-01
Si 5.386140e+00 8.192860e+00 2.728880e+00 9.079310e-01 -5.540950e-01 -4.919160e-02
Si -6.916450e-04 4.603740e-02 5.405140e+00 4.101470e-01 -4.950710e-01 4.155750e-01
Si 2.700250e+00 2.685670e+00 5.463680e+00 7.040670e-01 7.697920e-01 -9.070140e-01
Si 5.390460e+00 5.461370e+00 5.421720e+00 1.249300e+00 -3.759180e-01 2.135300e-02
Si 8.156010e+00 8.164830e+00 5.463910e+00 8.510470e-02 -9.855590e-01 -7.769730e-02
Si 2.721750e+00 3.267330e-03 8.116480e+00 -1.544990e-02 4.714750e-01 -1.020710e-01
Si 5.432870e+00 2.668510e+00 8.163700e+00 1.585630e-01 1.519040e+00 -5.992860e-01
Si 8.130520e+00 5.443280e+00 8.104880e+00 -1.063110e-01 -8.171150e-02 1.360490e+00
Si -8.509260e-03 8.166660e+00 2.699710e+00 6.144940e-02 -5.469450e-01 6.472730e-01
Si -1.030500e-02 5.441510e+00 5.453340e+00 -2.905800e-02 -2.447400e-01 2.037090e-01
Si 2.756090e+00 8.103760e+00 5.395450e+00 -1.786950e-01 6.832870e-01 1.041640e+00
Si 2.128640e-02 2.731810e+00 8.151600e+00 -5.526740e-01 9.185470e-02 2.016530e-01
Si 2.714740e+00 5.443120e+00 8.160190e+00 -3.785500e-01 -4.082360e-01 -3.420890e-01
Si 5.426430e+00 8.108250e+00 8.176300e+00 1.930150e-02 5.188340e-01 -2.111040e-01
Si -4.164330e-02 8.178150e+00 8.114770e+00 5.271320e-01 -2.191800e-01 7.068860e-01
64
Lattice="1.086200e+01 0.0 0.0 0.0 1.086200e+01 0.0 0.0 0.0 1.086200e+01" Properties=species:S:1:pos:r:3:forces:r:3 energy=-2.964000e+02 stress="-7.218984e+02 -8.844475e+02 -6.465840e+02 7.255462e+02 -7.753607e+02 -1.612590e+03" pbc="T T T"
Si 6.753210e+00 1.282810e+00 1.334270e+00 5.127510e-01 5.530090e-01 7.962120e-02
Si 9.507150e+00 4.003350e+00 1.336210e+00 5.916370e-01 2.994120e-01 3.394510e-01
Si 9.516430e+00 1.378860e+00 4.066240e+00 -2.752690e-01 -5.776400e-01 -3.551910e-02
Si 1.348160e+00 1.377690e+00 1.377640e+00 7.544810e-01 -5.033910e-01 -4.057580e-01
Si 4.056680e+00 4.124000e+00 1.382210e+00 6.922970e-01 -5.342710e-01 1.917570e-01
Si 6.779940e+00 6.824500e+00 1.391010e+00 -1.909420e-01 -1.664010e-01 -2.072570e-01
Si 9.444030e+00 9.516150e+00 1.400230e+00 6.044480e-01 8.889630e-02 -5.790770e-01
Si 4.111900e+00 1.299600e+00 4.081410e+00 -3.480780e-01 1.042260e+00 -3.803260e-01
Si 6.823720e+00 4.102270e+00 4.073100e+00 -4.371020e-01 -3.183960e-01 -2.350220e-01
Si 9.492160e+00 6.727520e+00 4.080770e+00 1.007190e-01 1.032390e+00 -2.793490e-01
Si 6.779750e+00 1.391970e+00 6.771810e+00 6.644440e-01 -6.118030e-01 -2.758890e-01
Si 9.457150e+00 4.109010e+00 6.815740e+00 8.003020e-01 -7.458780e-01 -5.098570e-01
Si 9.536760e+00 1.350290e+00 9.534050e+00 7.232260e-02 -1.190470e-01 -6.185480e-01
Si 1.369380e+00 6.811150e+00 1.326450e+00 -5.821450e-01 -2.503730e-01 5.441200e-01
Si 4.022190e+00 9.469810e+00 1.319150e+00 1.114180e-01 5.951350e-01 5.047620e-01
Si 1.307350e+00 4.059070e+00 4.081830e+00 7.641140e-01 6.648210e-02 4.823830e-01
Si 4.095890e+00 6.758550e+00 4.033990e+00 -4.767320e-01 4.864600e-01 2.073210e-01
Si 6.829450e+00 9.490390e+00 4.121380e+00 -6.350390e-01 -6.866230e-02 -5.035160e-01
Si 1.357200e+00 1.397360e+00 6.782490e+00 -1.560970e-01 -5.231530e-01 1.976530e-01
Si 4.096550e+00 4.109370e+00 6.781930e+00 -5.293680e-01 -7.843460e-01 3.579540e-01
Si 6.768140e+00 6.777730e+00 6.830110e+00 -1.944410e-03 4.442850e-01 -8.668870e-01
Si 9.548850e+00 9.513200e+00 6.763650e+00 -6.130880e-01 6.081970e-01 -1.651010e-01
Si 4.090230e+00 1.371650e+00 9.449090e+00 -4.976210e-01 -4.864590e-01 1.031160e+00
Si 6.781250e+00 4.079000e+00 9.519610e+00 2.474870e-01 -2.595130e-01 1.513800e-02
Si 9.503940e+00 6.795090e+00 9.495910e+00 -3.343680e-01 5.547380e-03 1.846650e-01
Si 1.393730e+00 9.509420e+00 4.095270e+00 -5.198990e-01 -2.518180e-01 -2.795370e-01
Si 1.324220e+00 6.830420e+00 6.830830e+00 6.289290e-01 -4.067750e-01 -7.247600e-01
Si 4.133250e+00 9.529560e+00 6.790640e+00 -5.524560e-01 -9.316470e-01 -3.255670e-01
Si 1.382910e+00 4.059000e+00 9.537310e+00 9.885880e-02 2.572270e-01 -4.255920e-01
Si 4.053680e+00 6.743850e+00 9.486800e+00 -2.353390e-01 9.849390e-01 9.386250e-01
Si 6.778400e+00 9.485120e+00 9.518060e+00 1.463070e-01 4.920090e-01 -7.078350e-01
Si 1.331530e+00 9.544800e+00 9.432120e+00 3.219420e-01 -5.638200e-01 4.155410e-01
Si 5.381700e+00 -4.981370e-02 -1.816430e-02 1.033390e-01 3.602220e-01 -2.678580e-01
Si 8.168850e+00 2.674190e+00 7.660170e-03 -8.224800e-01 -7.145730e-02 -1.865540e-01
Si 8.112440e+00 5.051580e-03 2.771670e+00 3.421670e-01 3.932540e-02 -4.551340e-01
Si 2.832990e-02 -4.295520e-02 -5.910700e-03 -6.306480e-01 6.472620e-01 6.215640e-01
Si 2.776050e+00 2.756280e+00 1.888660e-02 -6.328410e-01 -8.191330e-01 -9.597540e-02
Si 5.423030e+00 5.453900e+00 2.691230e-02 8.853210e-02 -5.984080e-02 -1.262770e-01
Si 8.104690e+00 8.172600e+00 5.366960e-03 6.350980e-01 -5.197620e-01 1.600300e-01
Si 2.718720e+00 -2.272340e-02 2.722940e+00 3.840470e-02 2.815660e-01 -3.209900e-01
Si 5.482330e+00 2.708600e+00 2.688130e+00 -8.402510e-01 1.123610e-01 4.828680e-01
Si 8.172250e+00 5.386750e+00 2.656320e+00 -2.714570e-01 4.933680e-01 5.198390e-01
Si 5.468990e+00 -1.572500e-02 5.398660e+00 1.392540e-01 1.919890e-01 8.281070e-01
Si 8.184570e+00 2.709720e+00 5.381910e+00 -5.628940e-01 6.121610e-01 9.367530e-01
Si 8.183060e+00 1.450170e-02 8.117060e+00 -5.510410e-01 -1.978380e-01 4.886290e-01
Si 1.851110e-02 5.399360e+00 -7.659790e-04 -3.714450e-01 3.543930e-01 8.979000e-03
Si 2.659690e+00 8.182900e+00 -1.435670e-02 4.964790e-01 -7.131730e-01 -1.075370e+00
Si 5.209900e-03 2.667820e+00 2.756300e+00 -3.193250e-01 7.546920e-01 -7.922990e-01
Si 2.690050e+00 5.440750e+00 2.734660e+00 -2.272450e-01 -8.683250e-02 -2.490090e-01
Si 5.384410e+00 8.200400e+00 2.732780e+00 8.330520e-01 -5.642250e-01 -1.107940e-01
Si 4.977870e-03 5.453210e-02 5.402590e+00 3.889650e-01 -5.675850e-01 3.661060e-01
Si 2.705300e+00 2.687030e+00 5.461470e+00 6.678570e-01 6.820950e-01 -8.448770e-01
Si 5.395120e+00 5.466460e+00 5.418940e+00 1.126290e+00 -4.751410e-01 2.351040e-02
Si 8.160510e+00 8.156430e+00 5.474320e+00 4.470630e-02 -8.396220e-01 -2.526860e-01
Si 2.723580e+00 1.165050e-02 8.104890e+00 -7.890190e-04 2.900860e-01 -4.573360e-02
Si 5.435760e+00 2.675140e+00 8.160730e+00 1.577490e-01 1.336590e+00 -5.540890e-01
Si 8.123530e+00 5.446360e+00 8.110810e+00 -5.276500e-02 -1.323310e-01 1.225170e+00
Si -1.034990e-02 8.165310e+00 2.703840e+00 2.596010e-02 -4.634080e-01 5.813090e-01
Si -1.430980e-02 5.441380e+00 5.464140e+00 2.133300e-02 -2.037360e-01 6.367270e-02
Si 2.767470e+00 8.099160e+00 5.398730e+00 -3.104960e-01 7.169730e-01 9.391180e-01
Si 2.024850e-02 2.738740e+00 8.156360e+00 -4.728540e-01 2.442410e-02 1.477890e-01
Si 2.708800e+00 5.441100e+00 8.159770e+00 -2.842200e-01 -3.296950e-01 -3.077130e-01
Si 5.425350e+00 8.102800e+00 8.183450e+00 -2.248320e-02 5.625140e-01 -2.833490e-01
Si -4.803360e-02 8.185710e+00 8.114580e+00 5.370770e-01 -2.690980e-01 6.105070e-01
64
Lattice="1.086200e+01 0.0 0.0 0.0 1.086200e+01 0.0 0.0 0.0 1.086200e+01" Properties=species:S:1:pos:r:3:forces:r:3 energy=-2.966978e+02 stress="-2.307288e+02 -3.358682e+02 -1.782079e+02 1.914494e+02 -1.620898e+02 -3.837540e+02" pbc="T T T"
Si 6.755690e+00 1.273810e+00 1.329010e+00 2.451250e-01 5.692910e-01 1.726090e-01
Si 9.521850e+00 3.989810e+00 1.338450e+00 1.711520e-01 4.674230e-01 1.468910e-01
Si 9.514470e+00 1.371790e+00 4.062360e+00 -2.483710e-01 -3.166840e-01 1.307120e-01
Si 1.361540e+00 1.372760e+00 1.374620e+00 4.520830e-01 -3.868890e-01 -2.929830e-01
Si 4.066800e+00 4.127480e+00 1.392930e+00 4.388090e-01 -5.579070e-01 3.588510e-02
Si 6.773120e+00 6.831520e+00 1.396070e+00 -4.139700e-02 -2.861310e-01 -2.645320e-01
Si 9.439420e+00 9.521940e+00 1.398700e+00 6.445960e-01 -6.656720e-02 -3.632270e-01
Si 4.114900e+00 1.305050e+00 4.075750e+00 -2.884720e-01 8.319640e-01 -2.504370e-01
Si 6.824350e+00 4.104090e+00 4.068550e+00 -3.850660e-01 -3.516250e-01 -2.012230e-01
Si 9.490730e+00 6.732690e+00 4.076380e+00 1.251270e-01 7.554510e-01 -1.320950e-01
Si 6.789880e+00 1.387700e+00 6.760040e+00 5.648590e-01 -3.658540e-01 4.838760e-02
Si 9.461140e+00 4.102790e+00 6.810560e+00 6.019330e-01 -4.938440e-01 -1.680750e-01
Si 9.548730e+00 1.345660e+00 9.529310e+00 -2.213700e-01 -4.517480e-02 -4.687350e-01
Si 1.361350e+00 6.811980e+00 1.329940e+00 -4.999250e-01 -2.061380e-01 3.494920e-01
Si 4.010300e+00 9.473790e+00 1.320220e+00 2.482640e-01 3.510320e-01 3.122780e-01
Si 1.309710e+00 4.055890e+00 4.094140e+00 5.886530e-01 1.594360e-01 2.680830e-01
Si 4.092130e+00 6.759900e+00 4.026580e+00 -3.603040e-01 4.493910e-01 3.719120e-01
Si 6.826630e+00 9.485990e+00 4.123360e+00 -4.362320e-01 -8.961900e-02 -3.771510e-01
Si 1.353450e+00 1.395270e+00 6.785580e+00 -4.238050e-02 -2.109360e-01 5.685190e-02
Si 4.091700e+00 4.101870e+00 6.788610e+00 -3.591490e-01 -4.635750e-01 1.072160e-01
Si 6.761940e+00 6.784340e+00 6.822120e+00 1.174370e-01 2.486400e-01 -5.114100e-01
Si 9.548990e+00 9.528350e+00 6.752570e+00 -5.889010e-01 3.408890e-01 6.218350e-02
Si 4.084460e+00 1.364060e+00 9.456140e+00 -3.358800e-01 -1.996150e-01 7.071460e-01
Si 6.785090e+00 4.074630e+00 9.523000e+00 8.298430e-02 -1.223370e-01 9.137140e-02
Si 9.496920e+00 6.796950e+00 9.496150e+00 -1.957130e-01 -1.756410e-02 2.767940e-01