ITEM: TIMESTEP
0
ITEM: NUMBER OF ATOMS
64
ITEM: BOX BOUNDS pp pp pp
0.0000000000000000e+00 1.0862000000000000e+01
0.0000000000000000e+00 1.0862000000000000e+01
0.0000000000000000e+00 1.0862000000000000e+01
ITEM: ATOMS id type x y z fx fy fz
1 1 6.78875 1.35775 1.35775 6.50104e-13 1.00424e-05 1.00424e-05
2 1 9.50425 4.07325 1.35775 1.00424e-05 6.64915e-13 1.00424e-05
3 1 9.50425 1.35775 4.07325 1.00424e-05 1.00424e-05 6.65223e-13
4 1 1.35775 1.35775 1.35775 1.00424e-05 1.00424e-05 1.00424e-05
5 1 4.07325 4.07325 1.35775 4.3789e-15 4.37898e-15 1.00424e-05
6 1 6.78875 6.78875 1.35775 -6.89234e-15 -6.89235e-15 1.00424e-05
7 1 9.50425 9.50425 1.35775 1.00424e-05 1.00424e-05 1.00424e-05
8 1 4.07325 1.35775 4.07325 4.34464e-15 1.00424e-05 4.31046e-15
9 1 6.78875 4.07325 4.07325 -8.02076e-15 7.36969e-15 2.58435e-15
10 1 9.50425 6.78875 4.07325 1.00424e-05 -9.43095e-15 3.10551e-15
11 1 6.78875 1.35775 6.78875 -7.13166e-15 1.00424e-05 -6.721e-15
12 1 9.50425 4.07325 6.78875 1.00424e-05 3.07117e-15 -9.22571e-15
13 1 9.50425 1.35775 9.50425 1.00424e-05 1.00424e-05 1.00424e-05
14 1 1.35775 6.78875 1.35775 1.00424e-05 6.50104e-13 1.00424e-05
15 1 4.07325 9.50425 1.35775 6.64915e-13 1.00424e-05 1.00424e-05
16 1 1.35775 4.07325 4.07325 1.00424e-05 4.34472e-15 4.31057e-15
17 1 4.07325 6.78875 4.07325 7.36976e-15 -8.02091e-15 2.58454e-15
18 1 6.78875 9.50425 4.07325 -9.4311e-15 1.00424e-05 3.10552e-15
19 1 1.35775 1.35775 6.78875 1.00424e-05 1.00424e-05 6.50207e-13
20 1 4.07325 4.07325 6.78875 4.99437e-15 4.99441e-15 -5.13132e-15
21 1 6.78875 6.78875 6.78875 -8.39704e-15 -8.39704e-15 -8.25999e-15
22 1 9.50425 9.50425 6.78875 1.00424e-05 1.00424e-05 6.56874e-13
23 1 4.07325 1.35775 9.50425 6.6512e-13 1.00424e-05 1.00424e-05
24 1 6.78875 4.07325 9.50425 -9.22575e-15 2.93435e-15 1.00424e-05
25 1 9.50425 6.78875 9.50425 1.00424e-05 6.55173e-13 1.00424e-05
26 1 1.35775 9.50425 4.07325 1.00424e-05 1.00424e-05 6.65223e-13
27 1 1.35775 6.78875 6.78875 1.00424e-05 -7.13182e-15 -6.72059e-15
28 1 4.07325 9.50425 6.78875 3.071e-15 1.00424e-05 -9.22535e-15
29 1 1.35775 4.07325 9.50425 1.00424e-05 6.6512e-13 1.00424e-05
30 1 4.07325 6.78875 9.50425 2.93426e-15 -9.22564e-15 1.00424e-05
31 1 6.78875 9.50425 9.50425 6.55173e-13 1.00424e-05 1.00424e-05
32 1 1.35775 9.50425 9.50425 1.00424e-05 1.00424e-05 1.00424e-05
33 1 5.431 1e-06 1e-06 7.75648e-12 -2.0892e-05 -2.0892e-05
34 1 8.1465 2.7155 1e-06 4.03591e-07 4.03591e-07 -2.0892e-05
35 1 8.1465 1e-06 2.7155 4.03591e-07 -2.0892e-05 4.03591e-07
36 1 1e-06 1e-06 1e-06 -2.0892e-05 -2.0892e-05 -2.0892e-05
37 1 2.7155 2.7155 1e-06 4.03592e-07 4.03592e-07 -2.0892e-05
38 1 5.431 5.431 1e-06 -2.05213e-16 -2.05494e-16 -2.0892e-05
39 1 8.1465 8.1465 1e-06 4.0359e-07 4.0359e-07 -2.0892e-05
40 1 2.7155 1e-06 2.7155 4.03592e-07 -2.0892e-05 4.03592e-07
41 1 5.431 2.7155 2.7155 4.33708e-13 4.03595e-07 4.03595e-07
42 1 8.1465 5.431 2.7155 4.03594e-07 4.30778e-13 4.03594e-07
43 1 5.431 1e-06 5.431 -1.36759e-16 -2.0892e-05 -2.0523e-16
44 1 8.1465 2.7155 5.431 4.03594e-07 4.03594e-07 4.33154e-13
45 1 8.1465 1e-06 8.1465 4.0359e-07 -2.0892e-05 4.0359e-07
46 1 1e-06 5.431 1e-06 -2.0892e-05 7.75648e-12 -2.0892e-05
47 1 2.7155 8.1465 1e-06 4.03591e-07 4.03591e-07 -2.0892e-05
48 1 1e-06 2.7155 2.7155 -2.0892e-05 4.03592e-07 4.03592e-07
49 1 2.7155 5.431 2.7155 4.03595e-07 4.33708e-13 4.03595e-07
50 1 5.431 8.1465 2.7155 4.30778e-13 4.03594e-07 4.03594e-07
51 1 1e-06 1e-06 5.431 -2.0892e-05 -2.0892e-05 7.75652e-12
52 1 2.7155 2.7155 5.431 4.03595e-07 4.03595e-07 4.33639e-13
53 1 5.431 5.431 5.431 -2.73823e-16 -2.73714e-16 2.63692e-19
54 1 8.1465 8.1465 5.431 4.03593e-07 4.03593e-07 4.30417e-13
55 1 2.7155 1e-06 8.1465 4.03591e-07 -2.0892e-05 4.03591e-07
56 1 5.431 2.7155 8.1465 4.30812e-13 4.03594e-07 4.03594e-07
57 1 8.1465 5.431 8.1465 4.03593e-07 4.30451e-13 4.03593e-07
58 1 1e-06 8.1465 2.7155 -2.0892e-05 4.03591e-07 4.03591e-07
59 1 1e-06 5.431 5.431 -2.0892e-05 -1.37192e-16 -2.05447e-16
60 1 2.7155 8.1465 5.431 4.03594e-07 4.03594e-07 4.33154e-13
61 1 1e-06 2.7155 8.1465 -2.0892e-05 4.03591e-07 4.03591e-07
62 1 2.7155 5.431 8.1465 4.03594e-07 4.30812e-13 4.03594e-07
63 1 5.431 8.1465 8.1465 4.30451e-13 4.03593e-07 4.03593e-07
64 1 1e-06 8.1465 8.1465 -2.0892e-05 4.0359e-07 4.0359e-07
ITEM: TIMESTEP
10
ITEM: NUMBER OF ATOMS
64
ITEM: BOX BOUNDS pp pp pp
0.0000000000000000e+00 1.0862000000000000e+01
0.0000000000000000e+00 1.0862000000000000e+01
0.0000000000000000e+00 1.0862000000000000e+01
ITEM: ATOMS id type x y z fx fy fz
1 1 6.77406 1.33524 1.35212 0.334404 0.192042 -0.0268624
2 1 9.49742 4.05504 1.34842 0.442735 0.0158571 0.227595
3 1 9.50933 1.36911 4.07321 -0.105082 -0.344316 -0.112625
4 1 1.34774 1.36723 1.36632 0.427072 -0.248495 -0.194597
5 1 4.06233 4.0894 1.36134 0.378156 -0.170515 0.148185
6 1 6.78911 6.79783 1.36711 -0.152995 0.00992529 -0.047022
7 1 9.48524 9.50539 1.37427 0.198778 0.11341 -0.333825
8 1 4.08584 1.33448 4.07888 -0.158669 0.46724 -0.197774
9 1 6.8009 4.08253 4.0752 -0.180216 -0.102608 -0.109384
10 1 9.50072 6.76412 4.07838 0.0227034 0.510884 -0.190386
11 1 6.78127 1.37251 6.78906 0.27729 -0.34727 -0.27765
12 1 9.48534 4.08929 6.80191 0.390568 -0.392484 -0.376187
13 1 9.50935 1.35736 9.51722 0.198443 -0.0867219 -0.302901
14 1 1.36533 6.79641 1.3445 -0.249148 -0.109627 0.305061
15 1 4.0608 9.48949 1.34283 -0.0345782 0.348941 0.301374
16 1 1.33844 4.07005 4.07045 0.364547 -0.031852 0.277564
17 1 4.08317 6.77753 4.06324 -0.232974 0.193335 -0.00896714
18 1 6.80509 9.501 4.08989 -0.346714 -0.0067291 -0.252735
19 1 1.35954 1.37399 6.78467 -0.112457 -0.370585 0.148502
20 1 4.08402 4.09034 6.78256 -0.272336 -0.457431 0.261214
21 1 6.78463 6.78143 6.80803 -0.0725606 0.256937 -0.502611
22 1 9.51981 9.50014 6.78548 -0.227055 0.361198 -0.183515
23 1 4.08215 1.36704 9.48075 -0.257476 -0.340404 0.538893
24 1 6.78384 4.0777 9.50869 0.176828 -0.176479 -0.0431434
25 1 9.50748 6.79013 9.50184 -0.182452 0.0127451 -0.00232336
26 1 1.37157 9.50742 4.08142 -0.266881 -0.0980487 -0.148161
27 1 1.34401 6.80187 6.80552 0.288625 -0.136989 -0.339653
28 1 4.09264 9.51973 6.79326 -0.23368 -0.510785 -0.237658
29 1 1.36173 4.0675 9.51603 0.146385 0.117368 -0.188854
30 1 4.07149 6.76804 9.48981 -0.181772 0.524547 0.571765
31 1 6.78523 9.49465 9.51441 0.0439171 0.267022 -0.371099
32 1 1.34849 9.52051 9.48397 0.146626 -0.349293 0.106418
33 1 5.41932 -0.0149916 -0.00114061 -0.0548714 0.13023 -0.198342
34 1 8.1611 2.70605 0.00301939 -0.515602 -0.0504116 -0.0523016
35 1 8.13526 -0.000311976 2.73172 0.143574 0.103711 -0.0937196
36 1 0.0138352 -0.016119 -0.00760759 -0.384697 0.290794 0.340634
37 1 2.73604 2.73248 0.00584905 -0.294548 -0.361114 -0.0676212
38 1 5.42863 5.43688 0.0075274 0.0155209 -0.00396579 -0.0407418
39 1 8.13035 8.15807 -0.000784824 0.311215 -0.280476 0.128252
40 1 2.71553 -0.00745741 2.72107 0.0491329 0.0872307 -0.214157
41 1 5.45151 2.7125 2.70461 -0.420298 0.0720806 0.218486
42 1 8.15528 5.41665 2.69672 -0.127142 0.166026 0.213015
43 1 5.43729 -0.00568061 5.41522 0.204123 0.0957126 0.425962
44 1 8.16067 2.70776 5.40981 -0.25082 0.354531 0.497591
45 1 8.16055 0.00581008 8.13438 -0.267423 -0.124973 0.265694
46 1 0.00764788 5.4206 -0.000514583 -0.16185 0.128314 0.021388
47 1 2.69679 8.16208 0.00893222 0.26202 -0.353815 -0.721852
48 1 0.00656929 2.6962 2.73268 -0.319533 0.412526 -0.380824
49 1 2.71153 5.4336 2.72241 -0.134609 -0.000696303 -0.114355
50 1 5.41139 8.16462 2.72004 0.444976 -0.250486 -0.00440659
51 1 -0.00225938 0.0174992 5.42023 0.191794 -0.196256 0.205537
52 1 2.70692 2.70151 5.44644 0.330433 0.389783 -0.430497
53 1 5.41109 5.44258 5.4278 0.609873 -0.127398 0.010824
54 1 8.14914 8.15784 5.44176 0.0525631 -0.504102 0.0344741
55 1 2.7177 -0.00178976 8.13713 -0.0121833 0.285923 -0.0623222
56 1 5.43085 2.69186 8.15529 0.0724048 0.767365 -0.291434
57 1 8.14185 5.43532 8.12565 -0.0671049 -0.0172483 0.665505
58 1 -0.00325934 8.15613 2.70695 0.0432452 -0.280116 0.312276
59 1 -0.00312875 5.43583 5.43699 -0.0327412 -0.128339 0.149729
60 1 2.72947 8.12907 5.41384 -0.0298269 0.296341 0.504794
61 1 0.010024 2.72029 8.14704 -0.281765 0.0651281 0.114612
62 1 2.71739 5.43727 8.15283 -0.20965 -0.215586 -0.168482
63 1 5.42922 8.13137 8.1572 0.0295985 0.220811 -0.0651915
64 1 -0.0163854 8.15796 8.13219 0.234161 -0.0823427 0.358838
ITEM: TIMESTEP
20
ITEM: NUMBER OF ATOMS
64
ITEM: BOX BOUNDS pp pp pp
0.0000000000000000e+00 1.0862000000000000e+01
0.0000000000000000e+00 1.0862000000000000e+01
0.0000000000000000e+00 1.0862000000000000e+01
ITEM: ATOMS id type x y z fx fy fz
1 1 6.76217 1.31436 1.34629 0.568644 0.359369 -0.0283999
2 1 9.4943 4.03699 1.341 0.743053 0.0601155 0.386555
3 1 9.51352 1.37759 4.07225 -0.194821 -0.594486 -0.173783
4 1 1.34131 1.37463 1.37325 0.742208 -0.434164 -0.348923
5 1 4.05459 4.10409 1.36618 0.659054 -0.32853 0.248195
6 1 6.7882 6.80699 1.37606 -0.251711 -0.00696684 -0.0960722
7 1 9.46792 9.50747 1.38799 0.374341 0.183333 -0.574258
8 1 4.09708 1.31517 4.08284 -0.281054 0.842478 -0.348382
9 1 6.81152 4.09094 4.07623 -0.326252 -0.190671 -0.190786
10 1 9.49739 6.74379 4.08193 0.0472755 0.90267 -0.317849
11 1 6.77613 1.38435 6.78706 0.5018 -0.605929 -0.450029
12 1 9.46972 4.10202 6.81192 0.689947 -0.689549 -0.629891
13 1 9.51609 1.35625 9.52764 0.305186 -0.145233 -0.533438
14 1 1.3708 6.80315 1.3338 -0.44831 -0.199143 0.528583
15 1 4.04808 9.47765 1.33043 -0.0375064 0.599709 0.513177
16 1 1.32221 4.06659 4.06999 0.649086 -0.0380266 0.481759
17 1 4.09114 6.76794 4.05316 -0.413204 0.350822 0.00984498
18 1 6.81851 9.49768 4.10439 -0.597365 -0.0174199 -0.446717
19 1 1.36038 1.38713 6.78183 -0.188458 -0.621052 0.246839
20 1 4.0925 4.1036 6.77856 -0.480437 -0.784553 0.441443
21 1 6.77992 6.77627 6.82308 -0.104052 0.4446 -0.872335
22 1 9.53345 9.49905 6.78068 -0.42138 0.6181 -0.298983
23 1 4.08888 1.37349 9.46178 -0.450854 -0.569183 0.941508
24 1 6.7804 4.08068 9.51277 0.298219 -0.294379 -0.0614554
25 1 9.50918 6.79161 9.49943 -0.323295 0.0213783 0.0256217
26 1 1.38314 9.50975 4.08835 -0.467028 -0.178518 -0.259754
27 1 1.3327 6.81384 6.81943 0.517985 -0.256523 -0.603188
28 1 4.11005 9.53092 6.79578 -0.421695 -0.89037 -0.395106
29 1 1.36692 4.06274 9.52622 0.23062 0.211323 -0.33852
30 1 4.06822 6.75175 9.48016 -0.31103 0.923063 0.984998
31 1 6.78209 9.4873 9.52145 0.0894366 0.469453 -0.651401
32 1 1.34046 9.53384 9.46461 0.260631 -0.598571 0.207896
33 1 5.4072 -0.0288788 -0.00394125 -0.0719863 0.242152 -0.3349
34 1 8.17138 2.69619 0.00558907 -0.880817 -0.0870129 -0.103785
35 1 8.12524 0.00023035 2.74713 0.262243 0.158423 -0.201066
36 1 0.0244446 -0.0297875 -0.0123511 -0.659562 0.518183 0.597065
37 1 2.7541 2.74641 0.0111351 -0.520528 -0.654907 -0.10938
38 1 5.42639 5.44273 0.0147089 0.0344773 -0.0132957 -0.0747058
39 1 8.11683 8.16728 -0.000504035 0.551307 -0.490087 0.208346
40 1 2.71597 -0.0141712 2.72485 0.076577 0.16796 -0.363586
41 1 5.46849 2.71011 2.69556 -0.745548 0.125291 0.390155
42 1 8.16299 5.4037 2.67974 -0.226446 0.311949 0.380075
43 1 5.44526 -0.0105555 5.40301 0.3199 0.170179 0.746002
44 1 8.17273 2.703 5.39279 -0.448155 0.614182 0.865358
45 1 8.17234 0.0105721 8.12449 -0.475018 -0.213489 0.463244
46 1 0.0139287 5.41128 -0.000853993 -0.290263 0.236763 0.0323513
47 1 2.68028 8.17467 0.0118189 0.464096 -0.628481 -1.22786
48 1 0.0104769 2.68037 2.74664 -0.523161 0.717265 -0.673978
49 1 2.70642 5.43619 2.72835 -0.232938 -0.0127939 -0.204359
50 1 5.39552 8.18063 2.72453 0.771973 -0.447526 -0.0158185
51 1 -0.00290451 0.03333 5.41118 0.339133 -0.367264 0.358403
52 1 2.70113 2.69079 5.45825 0.583173 0.667412 -0.758539
53 1 5.3963 5.45307 5.42468 1.06338 -0.255079 0.0180058
54 1 8.15222 8.16496 5.45278 0.0861391 -0.863875 0.019374
55 1 2.71981 -0.00120097 8.12724 -0.0189033 0.466442 -0.104087
56 1 5.43132 2.67466 8.16162 0.128385 1.31664 -0.506227
57 1 8.13663 5.43949 8.11039 -0.108739 -0.0427103 1.15988
58 1 -0.00616225 8.16341 2.70102 0.0672259 -0.480557 0.549217
59 1 -0.00652635 5.43958 5.44421 -0.0470993 -0.217842 0.230558
60 1 2.74316 8.11414 5.40092 -0.0844332 0.537059 0.884583
61 1 0.0176846 2.72563 8.14853 -0.483705 0.103013 0.189767
62 1 2.71753 5.44173 8.15774 -0.349437 -0.366144 -0.292084
63 1 5.42767 8.11811 8.16733 0.0383686 0.401128 -0.135796
64 1 -0.0307945 8.16873 8.12089 0.421329 -0.156116 0.61663
ITEM: TIMESTEP
30
ITEM: NUMBER OF ATOMS
64
ITEM: BOX BOUNDS pp pp pp
0.0000000000000000e+00 1.0862000000000000e+01
0.0000000000000000e+00 1.0862000000000000e+01
0.0000000000000000e+00 1.0862000000000000e+01
ITEM: ATOMS id type x y z fx fy fz
1 1 6.75504 1.29653 1.34023 0.633505 0.482891 0.00767034
2 1 9.49738 4.01949 1.33682 0.801129 0.154857 0.428048
3 1 9.51606 1.38108 4.06985 -0.255358 -0.680169 -0.14857
4 1 1.34112 1.37836 1.37724 0.861114 -0.522346 -0.425959
5 1 4.05239 4.11598 1.37308 0.772639 -0.454887 0.266745
6 1 6.78518 6.81604 1.38418 -0.26644 -0.066615 -0.149354
7 1 9.45379 9.51107 1.39688 0.512261 0.178362 -0.660514
8 1 4.10596 1.30296 4.08387 -0.346828 1.04795 -0.415006
9 1 6.81938 4.09773 4.07565 -0.416371 -0.262588 -0.232578
10 1 9.49446 6.73107 4.08281 0.0735889 1.08868 -0.348792
11 1 6.77523 1.39111 6.78132 0.638754 -0.701586 -0.453976
12 1 9.45992 4.10896 6.81667 0.834547 -0.817545 -0.679937
13 1 9.52535 1.35393 9.53356 0.264525 -0.156875 -0.644403
14 1 1.37248 6.8082 1.32755 -0.564552 -0.249296 0.613405
15 1 4.03507 9.47084 1.32234 0.0107077 0.687453 0.58344
16 1 1.31144 4.06284 4.07357 0.790427 -0.00479322 0.557775
17 1 4.09562 6.76133 4.04321 -0.499129 0.452148 0.0801601
18 1 6.82692 9.49421 4.11514 -0.697408 -0.0396998 -0.534788
19 1 1.35965 1.39507 6.78105 -0.206302 -0.676711 0.26583
20 1 4.09693 4.11027 6.77824 -0.572966 -0.901802 0.479572
21 1 6.77436 6.77485 6.83081 -0.0801835 0.513841 -1.00449
22 1 9.54351 9.50316 6.77339 -0.55551 0.707706 -0.296701
23 1 4.09182 1.37517 9.45073 -0.537722 -0.622229 1.11748
24 1 6.77947 4.08119 9.51635 0.325551 -0.323435 -0.0416404
25 1 9.50815 6.79327 9.49727 -0.380474 0.019677 0.0918612
26 1 1.39078 9.51057 4.09309 -0.556562 -0.232432 -0.305425
27 1 1.32576 6.82361 6.82825 0.639154 -0.348635 -0.738735
28 1 4.1239 9.53462 6.795 -0.531202 -1.04254 -0.427385
29 1 1.37402 4.05977 9.53355 0.216566 0.261074 -0.422008
30 1 4.06234 6.74322 9.47878 -0.334965 1.08949 1.12124
31 1 6.77971 9.48389 9.52301 0.126505 0.552379 -0.773328
32 1 1.33464 9.54215 9.44703 0.321543 -0.675593 0.310055
33 1 5.39452 -0.0407101 -0.0095398 -0.0212607 0.320896 -0.362591
34 1 8.17428 2.68559 0.00727002 -0.992197 -0.0970378 -0.151283
35 1 8.11743 0.00207869 2.7608 0.332349 0.137399 -0.325588
36 1 0.029524 -0.039081 -0.0120759 -0.747608 0.640647 0.70116
37 1 2.76776 2.75481 0.0155058 -0.63695 -0.819447 -0.117777
38 1 5.42445 5.44845 0.0212525 0.0602418 -0.0312562 -0.103336
39 1 8.10795 8.17237 0.00151613 0.666751 -0.576899 0.218962
40 1 2.71705 -0.0194516 2.72559 0.0723434 0.235664 -0.403389
41 1 5.47918 2.70877 2.6898 -0.896111 0.141455 0.48311
42 1 8.16879 5.39342 2.66598 -0.276945 0.424769 0.482591
43 1 5.45589 -0.0139985 5.39709 0.299967 0.203651 0.889124
44 1 8.181 2.70339 5.38306 -0.55694 0.707183 1.02018
45 1 8.18013 0.0135447 8.11849 -0.575967 -0.240511 0.542991
46 1 0.0177564 5.40398 -0.000926283 -0.3632 0.314637 0.0283731
47 1 2.66768 8.18197 0.00442775 0.549065 -0.75683 -1.36177
48 1 0.0100345 2.67057 2.75493 -0.528198 0.83854 -0.819105
49 1 2.69936 5.43866 2.73256 -0.268147 -0.0424117 -0.251471
50 1 5.38614 8.19286 2.72888 0.907931 -0.554095 -0.0491916
51 1 -0.000691645 0.0460374 5.40514 0.410147 -0.495071 0.415575
52 1 2.70025 2.68567 5.46368 0.704067 0.769792 -0.907014
53 1 5.39046 5.46137 5.42172 1.2493 -0.375918 0.021353
54 1 8.15601 8.16483 5.46391 0.0851047 -0.985559 -0.0776973
55 1 2.72175 0.00326733 8.11648 -0.0154499 0.471475 -0.102071
56 1 5.43287 2.66851 8.1637 0.158563 1.51904 -0.599286
57 1 8.13052 5.44328 8.10488 -0.106311 -0.0817115 1.36049
58 1 -0.00850926 8.16666 2.69971 0.0614494 -0.546945 0.647273
59 1 -0.010305 5.44151 5.45334 -0.029058 -0.24474 0.203709
60 1 2.75609 8.10376 5.39545 -0.178695 0.683287 1.04164
61 1 0.0212864 2.73181 8.1516 -0.552674 0.0918547 0.201653
62 1 2.71474 5.44312 8.16019 -0.37855 -0.408236 -0.342089
63 1 5.42643 8.10825 8.1763 0.0193015 0.518834 -0.211104
64 1 -0.0416433 8.17815 8.11477 0.527132 -0.21918 0.706886
ITEM: TIMESTEP
40
ITEM: NUMBER OF ATOMS
64
ITEM: BOX BOUNDS pp pp pp
0.0000000000000000e+00 1.0862000000000000e+01
0.0000000000000000e+00 1.0862000000000000e+01
0.0000000000000000e+00 1.0862000000000000e+01
ITEM: ATOMS id type x y z fx fy fz
1 1 6.75321 1.28281 1.33427 0.512751 0.553009 0.0796212
2 1 9.50715 4.00335 1.33621 0.591637 0.299412 0.339451
3 1 9.51643 1.37886 4.06624 -0.275269 -0.57764 -0.0355191
4 1 1.34816 1.37769 1.37764 0.754481 -0.503391 -0.405758
5 1 4.05668 4.124 1.38221 0.692297 -0.534271 0.191757
6 1 6.77994 6.8245 1.39101 -0.190942 -0.166401 -0.207257
7 1 9.44403 9.51615 1.40023 0.604448 0.0888963 -0.579077
8 1 4.1119 1.2996 4.08141 -0.348078 1.04226 -0.380326
9 1 6.82372 4.10227 4.0731 -0.437102 -0.318396 -0.235022
10 1 9.49216 6.72752 4.08077 0.100719 1.03239 -0.279349
11 1 6.77975 1.39197 6.77181 0.664444 -0.611803 -0.275889
12 1 9.45715 4.10901 6.81574 0.800302 -0.745878 -0.509857
13 1 9.53676 1.35029 9.53405 0.0723226 -0.119047 -0.618548
14 1 1.36938 6.81115 1.32645 -0.582145 -0.250373 0.54412
15 1 4.02219 9.46981 1.31915 0.111418 0.595135 0.504762
16 1 1.30735 4.05907 4.08183 0.764114 0.0664821 0.482383
17 1 4.09589 6.75855 4.03399 -0.476732 0.48646 0.207321
18 1 6.82945 9.49039 4.12138 -0.635039 -0.0686623 -0.503516
19 1 1.3572 1.39736 6.78249 -0.156097 -0.523153 0.197653
20 1 4.09655 4.10937 6.78193 -0.529368 -0.784346 0.357954
21 1 6.76814 6.77773 6.83011 -0.00194441 0.444285 -0.866887
22 1 9.54885 9.5132 6.76365 -0.613088 0.608197 -0.165101
23 1 4.09023 1.37165 9.44909 -0.497621 -0.486459 1.03116
24 1 6.78125 4.079 9.51961 0.247487 -0.259513 0.015138
25 1 9.50394 6.79509 9.49591 -0.334368 0.00554738 0.184665
26 1 1.39373 9.50942 4.09527 -0.519899 -0.251818 -0.279537
27 1 1.32422 6.83042 6.83083 0.628929 -0.406775 -0.72476
28 1 4.13325 9.52956 6.79064 -0.552456 -0.931647 -0.325567
29 1 1.38291 4.059 9.53731 0.0988588 0.257227 -0.425592
30 1 4.05368 6.74385 9.4868 -0.235339 0.984939 0.938625
31 1 6.7784 9.48512 9.51806 0.146307 0.492009 -0.707835
32 1 1.33153 9.5448 9.43212 0.321942 -0.56382 0.415541
33 1 5.3817 -0.0498137 -0.0181643 0.103339 0.360222 -0.267858
34 1 8.16885 2.67419 0.00766017 -0.82248 -0.0714573 -0.186554
35 1 8.11244 0.00505158 2.77167 0.342167 0.0393254 -0.455134
36 1 0.0283299 -0.0429552 -0.0059107 -0.630648 0.647262 0.621564
37 1 2.77605 2.75628 0.0188866 -0.632841 -0.819133 -0.0959754
38 1 5.42303 5.4539 0.0269123 0.0885321 -0.0598408 -0.126277
39 1 8.10469 8.1726 0.00536696 0.635098 -0.519762 0.16003
40 1 2.71872 -0.0227234 2.72294 0.0384047 0.281566 -0.32099
41 1 5.48233 2.7086 2.68813 -0.840251 0.112361 0.482868
42 1 8.17225 5.38675 2.65632 -0.271457 0.493368 0.519839
43 1 5.46899 -0.015725 5.39866 0.139254 0.191989 0.828107
44 1 8.18457 2.70972 5.38191 -0.562894 0.612161 0.936753
45 1 8.18306 0.0145017 8.11706 -0.551041 -0.197838 0.488629
46 1 0.0185111 5.39936 -0.000765979 -0.371445 0.354393 0.008979
47 1 2.65969 8.1829 -0.0143567 0.496479 -0.713173 -1.07537
48 1 0.0052099 2.66782 2.7563 -0.319325 0.754692 -0.792299
49 1 2.69005 5.44075 2.73466 -0.227245 -0.0868325 -0.249009
50 1 5.38441 8.2004 2.73278 0.833052 -0.564225 -0.110794
51 1 0.00497787 0.0545321 5.40259 0.388965 -0.567585 0.366106
52 1 2.7053 2.68703 5.46147 0.667857 0.682095 -0.844877
53 1 5.39512 5.46646 5.41894 1.12629 -0.475141 0.0235104
54 1 8.16051 8.15643 5.47432 0.0447063 -0.839622 -0.252686
55 1 2.72358 0.0116505 8.10489 -0.000789019 0.290086 -0.0457336
56 1 5.43576 2.67514 8.16073 0.157749 1.33659 -0.554089
57 1 8.12353 5.44636 8.11081 -0.052765 -0.132331 1.22517
58 1 -0.0103499 8.16531 2.70384 0.0259601 -0.463408 0.581309
59 1 -0.0143098 5.44138 5.46414 0.021333 -0.203736 0.0636727
60 1 2.76747 8.09916 5.39873 -0.310496 0.716973 0.939118
61 1 0.0202485 2.73874 8.15636 -0.472854 0.0244241 0.147789
62 1 2.7088 5.4411 8.15977 -0.28422 -0.329695 -0.307713
63 1 5.42535 8.1028 8.18345 -0.0224832 0.562514 -0.283349
64 1 -0.0480336 8.18571 8.11458 0.537077 -0.269098 0.610507
ITEM: TIMESTEP
50
ITEM: NUMBER OF ATOMS
64
ITEM: BOX BOUNDS pp pp pp
0.0000000000000000e+00 1.0862000000000000e+01
0.0000000000000000e+00 1.0862000000000000e+01
0.0000000000000000e+00 1.0862000000000000e+01
ITEM: ATOMS id type x y z fx fy fz
1 1 6.75569 1.27381 1.32901 0.245125 0.569291 0.172609
2 1 9.52185 3.98981 1.33845 0.171152 0.467423 0.146891
3 1 9.51447 1.37179 4.06236 -0.248371 -0.316684 0.130712
4 1 1.36154 1.37276 1.37462 0.452083 -0.386889 -0.292983
5 1 4.0668 4.12748 1.39293 0.438809 -0.557907 0.0358851
6 1 6.77312 6.83152 1.39607 -0.041397 -0.286131 -0.264532
7 1 9.43942 9.52194 1.3987 0.644596 -0.0665672 -0.363227
8 1 4.1149 1.30505 4.07575 -0.288472 0.831964 -0.250437
9 1 6.82435 4.10409 4.06855 -0.385066 -0.351625 -0.201223
10 1 9.49073 6.73269 4.07638 0.125127 0.755451 -0.132095
11 1 6.78988 1.3877 6.76004 0.564859 -0.365854 0.0483876
12 1 9.46114 4.10279 6.81056 0.601933 -0.493844 -0.168075
13 1 9.54873 1.34566 9.52931 -0.22137 -0.0451748 -0.468735
14 1 1.36135 6.81198 1.32994 -0.499925 -0.206138 0.349492
15 1 4.0103 9.47379 1.32022 0.248264 0.351032 0.312278
16 1 1.30971 4.05589 4.09414 0.588653 0.159436 0.268083
17 1 4.09213 6.7599 4.02658 -0.360304 0.449391 0.371912
18 1 6.82663 9.48599 4.12336 -0.436232 -0.089619 -0.377151
19 1 1.35345 1.39527 6.78558 -0.0423805 -0.210936 0.0568519
20 1 4.0917 4.10187 6.78861 -0.359149 -0.463575 0.107216
21 1 6.76194 6.78434 6.82212 0.117437 0.24864 -0.51141
22 1 9.54899 9.52835 6.75257 -0.588901 0.340889 0.0621835
23 1 4.08446 1.36406 9.45614 -0.33588 -0.199615 0.707146
24 1 6.78509 4.07463 9.523 0.0829843 -0.122337 0.0913714
25 1 9.49692 6.79695 9.49615 -0.195713 -0.0175641 0.276794
26 1 1.3923 9.50614 4.09508 -0.371342 -0.229084 -0.198192
27 1 1.32799 6.83376 6.82729 0.494482 -0.423544 -0.57001
28 1 4.13791 9.51667 6.78357 -0.498105 -0.589453 -0.116104
29 1 1.39259 4.0604 9.53747 -0.0972292 0.203006 -0.349564
30 1 4.04307 6.75278 9.50268 -0.0377897 0.649707 0.48534
31 1 6.77833 9.49049 9.50715 0.146235 0.305601 -0.472342
32 1 1.33115 9.54271 9.42077 0.265956 -0.304173 0.51369
33 1 5.3698 -0.0558498 -0.0290186 0.278869 0.362638 -0.0748394
34 1 8.15653 2.6622 0.00646555 -0.428917 -0.00632158 -0.197212
35 1 8.11034 0.00832355 2.77864 0.295603 -0.112396 -0.564467
36 1 0.0218381 -0.0413451 0.00547132 -0.348566 0.54918 0.372758
37 1 2.77897 2.75084 0.0214571 -0.524039 -0.655639 -0.0546373
38 1 5.42237 5.45883 0.0314959 0.107942 -0.098517 -0.137521
39 1 8.10679 8.16847 0.0105546 0.471531 -0.333576 0.0486164
40 1 2.72071 -0.0236 2.71762 -0.0122517 0.295049 -0.138112
41 1 5.47839 2.70938 2.69054 -0.601628 0.0434549 0.391832
42 1 8.17342 5.38428 2.65108 -0.217742 0.5084 0.500643
43 1 5.48321 -0.0158268 5.4072 -0.1284 0.146772 0.579406
44 1 8.18337 2.7212 5.38866 -0.466875 0.356452 0.644323
45 1 8.18134 0.0138016 8.11975 -0.413732 -0.0968854 0.321454
46 1 0.0161185 5.39774 -0.000536816 -0.319742 0.350629 -0.0218908
47 1 2.65588 8.1778 -0.0421277 0.329774 -0.51877 -0.442123
48 1 -0.00224311 2.67144 2.75099 0.0477125 0.501015 -0.606331
49 1 2.67884 5.44209 2.73464 -0.113099 -0.134089 -0.20198
50 1 5.3897 8.20316 2.73571 0.57682 -0.493593 -0.191863
51 1 0.0139225 0.0581974 5.40313 0.276176 -0.576334 0.233527
52 1 2.71599 2.69413 5.45214 0.483499 0.436734 -0.592482
53 1 5.40926 5.46749 5.41636 0.727217 -0.530342 0.0271155
54 1 8.16537 8.14098 5.48253 -0.0256329 -0.467903 -0.461548
55 1 2.7254 0.0224274 8.09294 0.0206918 -0.0267049 0.0587171
56 1 5.43998 2.693 8.15309 0.123065 0.818789 -0.380821
57 1 8.11612 5.4483 8.12706 0.046814 -0.183168 0.801759
58 1 -0.0119815 8.16008 2.71286 -0.0285276 -0.256204 0.3722
59 1 -0.018117 5.43954 5.47542 0.091601 -0.108268 -0.161357
60 1 2.77617 8.10065 5.40991 -0.457324 0.639267 0.608746
61 1 0.0152387 2.74585 8.16236 -0.268914 -0.0888956 0.0446835
62 1 2.70049 5.43632 8.15676 -0.0841876 -0.152477 -0.199957
63 1 5.42406 8.10212 8.18818 -0.0743991 0.529899 -0.338781
64 1 -0.0498758 8.19097 8.11952 0.456593 -0.303309 0.35938
ITEM: TIMESTEP
60
ITEM: NUMBER OF ATOMS
64
ITEM: BOX BOUNDS pp pp pp
0.0000000000000000e+00 1.0862000000000000e+01
0.0000000000000000e+00 1.0862000000000000e+01
0.0000000000000000e+00 1.0862000000000000e+01
ITEM: ATOMS id type x y z fx fy fz
1 1 6.76022 1.26966 1.32522 -0.0878843 0.537455 0.264485
2 1 9.53795 3.98027 1.34192 -0.343969 0.616748 -0.0927953
3 1 9.51041 1.36206 4.05961 -0.174782 0.0262984 0.291825
4 1 1.37873 1.36456 1.36913 0.0354668 -0.199484 -0.116948
5 1 4.08061 4.1262 1.40392 0.0734433 -0.524459 -0.166032
6 1 6.76596 6.83608 1.39886 0.148413 -0.394644 -0.310541
7 1 9.44031 9.52714 1.39409 0.627149 -0.24568 -0.08267
8 1 4.11545 1.31754 4.06799 -0.183496 0.469564 -0.0537273
9 1 6.82172 4.10291 4.06231 -0.269779 -0.350175 -0.135391
10 1 9.49037 6.74423 4.07089 0.14157 0.33298 0.0515403
11 1 6.80477 1.38033 6.74873 0.343235 -0.0370678 0.436423
12 1 9.47022 4.09242 6.80398 0.291169 -0.125973 0.244051
13 1 9.55878 1.34065 9.52061 -0.528059 0.0415313 -0.234887
14 1 1.3491 6.81106 1.33639 -0.332738 -0.130789 0.0920251
15 1 4.00054 9.48071 1.32393 0.389481 0.021631 0.0687334
16 1 1.31705 4.05407 4.10868 0.318648 0.244409 -0.0387247
17 1 4.08532 6.76507 4.02236 -0.186919 0.343129 0.532181
18 1 6.82011 9.48084 4.12214 -0.158996 -0.0849056 -0.209036
19 1 1.34937 1.3914 6.78912 0.114867 0.158564 -0.123068
20 1 4.08383 4.09048 6.79616 -0.103364 -0.023756 -0.201111
21 1 6.75676 6.79303 6.80982 0.253827 -0.0280778 -0.0524434
22 1 9.54412 9.54635 6.74203 -0.48872 -0.0366945 0.316268
23 1 4.07586 1.3548 9.46914 -0.0844406 0.159377 0.225054
24 1 6.78962 4.06923 9.52718 -0.121886 0.048898 0.159122
25 1 9.48825 6.79866 9.49873 -0.00180887 -0.0409506 0.332695
26 1 1.38773 9.50092 4.09321 -0.152402 -0.160186 -0.0929592
27 1 1.33595 6.8335 6.81892 0.270786 -0.392454 -0.312565
28 1 4.13832 9.49881 6.77553 -0.396724 -0.105542 0.143465
29 1 1.40141 4.06352 9.53468 -0.321853 0.113001 -0.209046
30 1 4.03216 6.76719 9.52263 0.202606 0.18514 -0.115967
31 1 6.77951 9.49843 9.49227 0.129252 0.0470925 -0.125997
32 1 1.33302 9.53806 9.41381 0.167042 0.0225297 0.582298
33 1 5.36031 -0.0587922 -0.0404829 0.461431 0.335725 0.16399
34 1 8.1406 2.65018 0.00360305 0.0688849 0.0963804 -0.171711
35 1 8.11076 0.0106213 2.78081 0.210163 -0.276319 -0.624083
36 1 0.0124098 -0.0350738 0.0199756 0.0129974 0.373632 0.013735
37 1 2.77744 2.73986 0.0235611 -0.348118 -0.367993 -0.00972213
38 1 5.42262 5.46291 0.0349112 0.104743 -0.144368 -0.131102
39 1 8.11288 8.16153 0.0161431 0.224506 -0.065919 -0.086015
40 1 2.7226 -0.0219726 2.71114 -0.0599033 0.266244 0.0962856
41 1 5.46936 2.71051 2.69626 -0.250704 -0.0467562 0.229021
42 1 8.17274 5.38613 2.65011 -0.134846 0.464275 0.437166
43 1 5.49629 -0.0146754 5.42063 -0.438104 0.0913708 0.204638
44 1 8.17822 2.73567 5.40086 -0.286386 0.0103566 0.223612
45 1 8.17612 0.0122899 8.12516 -0.205517 0.0322507 0.095171
46 1 0.0110107 5.39911 -0.000498568 -0.224963 0.302112 -0.0567205
47 1 2.65487 8.16832 -0.0735665 0.105445 -0.23164 0.372073
48 1 -0.00925231 2.67929 2.74054 0.461523 0.157142 -0.30699
49 1 2.6667 5.44229 2.73292 0.057244 -0.165742 -0.125654
50 1 5.39987 8.20171 2.737 0.20843 -0.371789 -0.268849
51 1 0.0251864 0.0569618 5.40565 0.0900533 -0.516308 0.0662378
52 1 2.73075 2.70492 5.43781 0.193052 0.105716 -0.217083
53 1 5.42952 5.46403 5.41402 0.152543 -0.517202 0.0322066
54 1 8.17 8.1216 5.4868 -0.105278 0.0304372 -0.634236
55 1 2.7274 0.0329489 8.08151 0.0399351 -0.379164 0.191248
56 1 5.44523 2.71775 8.14225 0.0570052 0.0939464 -0.11606
57 1 8.10913 5.44869 8.15008 0.173629 -0.216958 0.213641
58 1 -0.0138572 8.15269 2.72502 -0.0814911 0.0132469 0.0793613
59 1 -0.0211379 5.43679 5.48529 0.161188 0.0137268 -0.413318
60 1 2.78095 8.10755 5.42622 -0.582329 0.468164 0.141526
61 1 0.00796617 2.75218 8.16872 0.000220082 -0.222066 -0.0780878
62 1 2.69149 5.43026 8.15206 0.176034 0.0738277 -0.050053
63 1 5.42214 8.10594 8.19003 -0.118324 0.425393 -0.362932
64 1 -0.0478454 8.19363 8.1275 0.307799 -0.31923 0.0264447
ITEM: TIMESTEP
70
ITEM: NUMBER OF ATOMS
64
ITEM: BOX BOUNDS pp pp pp
0.0000000000000000e+00 1.0862000000000000e+01
0.0000000000000000e+00 1.0862000000000000e+01
0.0000000000000000e+00 1.0862000000000000e+01
ITEM: ATOMS id type x y z fx fy fz
1 1 6.76403 1.27009 1.3237 -0.38309 0.465671 0.331681
2 1 9.55113 3.97598 1.3446 -0.815804 0.706794 -0.305944
3 1 9.50488 1.35255 4.05931 -0.0608865 0.35086 0.386537
4 1 1.39621 1.35467 1.36265 -0.384182 0.0160056 0.0763605
5 1 4.09502 4.12045 1.41349 -0.317424 -0.439364 -0.365703
6 1 6.76008 6.83729 1.399 0.334322 -0.459075 -0.332966
7 1 9.44654 9.53025 1.38876 0.550094 -0.395676 0.174164
8 1 4.11444 1.33401 4.05978 -0.060321 0.0391045 0.165292
9 1 6.81681 4.09876 4.05491 -0.115 -0.304999 -0.0469271
10 1 9.49122 6.75861 4.06583 0.145805 -0.124576 0.222574
11 1 6.82255 1.37264 6.74113 0.029658 0.277228 0.772578
12 1 9.48178 4.08097 6.79945 -0.0499449 0.263418 0.598612
13 1 9.56436 1.33598 9.50991 -0.75231 0.117743 0.0249659
14 1 1.33402 6.80903 1.34363 -0.114464 -0.0456713 -0.152858
15 1 3.9941 9.48783 1.32825 0.497622 -0.299829 -0.159292
16 1 1.32712 4.05432 4.12287 0.0291385 0.286934 -0.36798
17 1 4.07692 6.77313 4.02267 -0.00464869 0.179894 0.63604
18 1 6.81223 9.47498 4.1191 0.115777 -0.0414847 -0.0625254
19 1 1.34628 1.38886 6.79162 0.282948 0.46347 -0.296831
20 1 4.07509 4.07888 6.802 0.170972 0.41095 -0.474259
21 1 6.75375 6.80147 6.79704 0.373937 -0.317406 0.379114
22 1 9.5351 9.56401 6.73418 -0.328844 -0.446042 0.520122
23 1 4.06656 1.34689 9.48405 0.200856 0.488655 -0.297338
24 1 6.79311 4.06423 9.53269 -0.30574 0.20293 0.189634
25 1 9.47958 6.80003 9.50412 0.196764 -0.053448 0.318409
26 1 1.38186 9.49436 4.09052 0.0763113 -0.049186 -0.00148578
27 1 1.3462 6.8299 6.80791 0.0107883 -0.315005 -0.0151673