64
Atoms. Timestep: 0
1 6.78875 1.35775 1.35775
1 9.50425 4.07325 1.35775
1 9.50425 1.35775 4.07325
1 1.35775 1.35775 1.35775
1 4.07325 4.07325 1.35775
1 6.78875 6.78875 1.35775
1 9.50425 9.50425 1.35775
1 4.07325 1.35775 4.07325
1 6.78875 4.07325 4.07325
1 9.50425 6.78875 4.07325
1 6.78875 1.35775 6.78875
1 9.50425 4.07325 6.78875
1 9.50425 1.35775 9.50425
1 1.35775 6.78875 1.35775
1 4.07325 9.50425 1.35775
1 1.35775 4.07325 4.07325
1 4.07325 6.78875 4.07325
1 6.78875 9.50425 4.07325
1 1.35775 1.35775 6.78875
1 4.07325 4.07325 6.78875
1 6.78875 6.78875 6.78875
1 9.50425 9.50425 6.78875
1 4.07325 1.35775 9.50425
1 6.78875 4.07325 9.50425
1 9.50425 6.78875 9.50425
1 1.35775 9.50425 4.07325
1 1.35775 6.78875 6.78875
1 4.07325 9.50425 6.78875
1 1.35775 4.07325 9.50425
1 4.07325 6.78875 9.50425
1 6.78875 9.50425 9.50425
1 1.35775 9.50425 9.50425
1 5.431 1e-06 1e-06
1 8.1465 2.7155 1e-06
1 8.1465 1e-06 2.7155
1 1e-06 1e-06 1e-06
1 2.7155 2.7155 1e-06
1 5.431 5.431 1e-06
1 8.1465 8.1465 1e-06
1 2.7155 1e-06 2.7155
1 5.431 2.7155 2.7155
1 8.1465 5.431 2.7155
1 5.431 1e-06 5.431
1 8.1465 2.7155 5.431
1 8.1465 1e-06 8.1465
1 1e-06 5.431 1e-06
1 2.7155 8.1465 1e-06
1 1e-06 2.7155 2.7155
1 2.7155 5.431 2.7155
1 5.431 8.1465 2.7155
1 1e-06 1e-06 5.431
1 2.7155 2.7155 5.431
1 5.431 5.431 5.431
1 8.1465 8.1465 5.431
1 2.7155 1e-06 8.1465
1 5.431 2.7155 8.1465
1 8.1465 5.431 8.1465
1 1e-06 8.1465 2.7155
1 1e-06 5.431 5.431
1 2.7155 8.1465 5.431
1 1e-06 2.7155 8.1465
1 2.7155 5.431 8.1465
1 5.431 8.1465 8.1465
1 1e-06 8.1465 8.1465
64
Atoms. Timestep: 10
1 6.77406 1.33524 1.35212
1 9.49742 4.05504 1.34842
1 9.50933 1.36911 4.07321
1 1.34774 1.36723 1.36632
1 4.06233 4.0894 1.36134
1 6.78911 6.79783 1.36711
1 9.48524 9.50539 1.37427
1 4.08584 1.33448 4.07888
1 6.8009 4.08253 4.0752
1 9.50072 6.76412 4.07838
1 6.78127 1.37251 6.78906
1 9.48534 4.08929 6.80191
1 9.50935 1.35736 9.51722
1 1.36533 6.79641 1.3445
1 4.0608 9.48949 1.34283
1 1.33844 4.07005 4.07045
1 4.08317 6.77753 4.06324
1 6.80509 9.501 4.08989
1 1.35954 1.37399 6.78467
1 4.08402 4.09034 6.78256
1 6.78463 6.78143 6.80803
1 9.51981 9.50014 6.78548
1 4.08215 1.36704 9.48075
1 6.78384 4.0777 9.50869
1 9.50748 6.79013 9.50184
1 1.37157 9.50742 4.08142
1 1.34401 6.80187 6.80552
1 4.09264 9.51973 6.79326
1 1.36173 4.0675 9.51603
1 4.07149 6.76804 9.48981
1 6.78523 9.49465 9.51441
1 1.34849 9.52051 9.48397
1 5.41932 -0.0149916 -0.00114061
1 8.1611 2.70605 0.00301939
1 8.13526 -0.000311976 2.73172
1 0.0138352 -0.016119 -0.00760759
1 2.73604 2.73248 0.00584905
1 5.42863 5.43688 0.0075274
1 8.13035 8.15807 -0.000784824
1 2.71553 -0.00745741 2.72107
1 5.45151 2.7125 2.70461
1 8.15528 5.41665 2.69672
1 5.43729 -0.00568061 5.41522
1 8.16067 2.70776 5.40981
1 8.16055 0.00581008 8.13438
1 0.00764788 5.4206 -0.000514583
1 2.69679 8.16208 0.00893222
1 0.00656929 2.6962 2.73268
1 2.71153 5.4336 2.72241
1 5.41139 8.16462 2.72004
1 -0.00225938 0.0174992 5.42023
1 2.70692 2.70151 5.44644
1 5.41109 5.44258 5.4278
1 8.14914 8.15784 5.44176
1 2.7177 -0.00178976 8.13713
1 5.43085 2.69186 8.15529
1 8.14185 5.43532 8.12565
1 -0.00325934 8.15613 2.70695
1 -0.00312875 5.43583 5.43699
1 2.72947 8.12907 5.41384
1 0.010024 2.72029 8.14704
1 2.71739 5.43727 8.15283
1 5.42922 8.13137 8.1572
1 -0.0163854 8.15796 8.13219
64
Atoms. Timestep: 20
1 6.76217 1.31436 1.34629
1 9.4943 4.03699 1.341
1 9.51352 1.37759 4.07225
1 1.34131 1.37463 1.37325
1 4.05459 4.10409 1.36618
1 6.7882 6.80699 1.37606
1 9.46792 9.50747 1.38799
1 4.09708 1.31517 4.08284
1 6.81152 4.09094 4.07623
1 9.49739 6.74379 4.08193
1 6.77613 1.38435 6.78706
1 9.46972 4.10202 6.81192
1 9.51609 1.35625 9.52764
1 1.3708 6.80315 1.3338
1 4.04808 9.47765 1.33043
1 1.32221 4.06659 4.06999
1 4.09114 6.76794 4.05316
1 6.81851 9.49768 4.10439
1 1.36038 1.38713 6.78183
1 4.0925 4.1036 6.77856
1 6.77992 6.77627 6.82308
1 9.53345 9.49905 6.78068
1 4.08888 1.37349 9.46178
1 6.7804 4.08068 9.51277
1 9.50918 6.79161 9.49943
1 1.38314 9.50975 4.08835
1 1.3327 6.81384 6.81943
1 4.11005 9.53092 6.79578
1 1.36692 4.06274 9.52622
1 4.06822 6.75175 9.48016
1 6.78209 9.4873 9.52145
1 1.34046 9.53384 9.46461
1 5.4072 -0.0288788 -0.00394125
1 8.17138 2.69619 0.00558907
1 8.12524 0.00023035 2.74713
1 0.0244446 -0.0297875 -0.0123511
1 2.7541 2.74641 0.0111351
1 5.42639 5.44273 0.0147089
1 8.11683 8.16728 -0.000504035
1 2.71597 -0.0141712 2.72485
1 5.46849 2.71011 2.69556
1 8.16299 5.4037 2.67974
1 5.44526 -0.0105555 5.40301
1 8.17273 2.703 5.39279
1 8.17234 0.0105721 8.12449
1 0.0139287 5.41128 -0.000853993
1 2.68028 8.17467 0.0118189
1 0.0104769 2.68037 2.74664
1 2.70642 5.43619 2.72835
1 5.39552 8.18063 2.72453
1 -0.00290451 0.03333 5.41118
1 2.70113 2.69079 5.45825
1 5.3963 5.45307 5.42468
1 8.15222 8.16496 5.45278
1 2.71981 -0.00120097 8.12724
1 5.43132 2.67466 8.16162
1 8.13663 5.43949 8.11039
1 -0.00616225 8.16341 2.70102
1 -0.00652635 5.43958 5.44421
1 2.74316 8.11414 5.40092
1 0.0176846 2.72563 8.14853
1 2.71753 5.44173 8.15774
1 5.42767 8.11811 8.16733
1 -0.0307945 8.16873 8.12089
64
Atoms. Timestep: 30
1 6.75504 1.29653 1.34023
1 9.49738 4.01949 1.33682
1 9.51606 1.38108 4.06985
1 1.34112 1.37836 1.37724
1 4.05239 4.11598 1.37308
1 6.78518 6.81604 1.38418
1 9.45379 9.51107 1.39688
1 4.10596 1.30296 4.08387
1 6.81938 4.09773 4.07565
1 9.49446 6.73107 4.08281
1 6.77523 1.39111 6.78132
1 9.45992 4.10896 6.81667
1 9.52535 1.35393 9.53356
1 1.37248 6.8082 1.32755
1 4.03507 9.47084 1.32234
1 1.31144 4.06284 4.07357
1 4.09562 6.76133 4.04321
1 6.82692 9.49421 4.11514
1 1.35965 1.39507 6.78105
1 4.09693 4.11027 6.77824
1 6.77436 6.77485 6.83081
1 9.54351 9.50316 6.77339
1 4.09182 1.37517 9.45073
1 6.77947 4.08119 9.51635
1 9.50815 6.79327 9.49727
1 1.39078 9.51057 4.09309
1 1.32576 6.82361 6.82825
1 4.1239 9.53462 6.795
1 1.37402 4.05977 9.53355
1 4.06234 6.74322 9.47878
1 6.77971 9.48389 9.52301
1 1.33464 9.54215 9.44703
1 5.39452 -0.0407101 -0.0095398
1 8.17428 2.68559 0.00727002
1 8.11743 0.00207869 2.7608
1 0.029524 -0.039081 -0.0120759
1 2.76776 2.75481 0.0155058
1 5.42445 5.44845 0.0212525
1 8.10795 8.17237 0.00151613
1 2.71705 -0.0194516 2.72559
1 5.47918 2.70877 2.6898
1 8.16879 5.39342 2.66598
1 5.45589 -0.0139985 5.39709
1 8.181 2.70339 5.38306
1 8.18013 0.0135447 8.11849
1 0.0177564 5.40398 -0.000926283
1 2.66768 8.18197 0.00442775
1 0.0100345 2.67057 2.75493
1 2.69936 5.43866 2.73256
1 5.38614 8.19286 2.72888
1 -0.000691645 0.0460374 5.40514
1 2.70025 2.68567 5.46368
1 5.39046 5.46137 5.42172
1 8.15601 8.16483 5.46391
1 2.72175 0.00326733 8.11648
1 5.43287 2.66851 8.1637
1 8.13052 5.44328 8.10488
1 -0.00850926 8.16666 2.69971
1 -0.010305 5.44151 5.45334
1 2.75609 8.10376 5.39545
1 0.0212864 2.73181 8.1516
1 2.71474 5.44312 8.16019
1 5.42643 8.10825 8.1763
1 -0.0416433 8.17815 8.11477
64
Atoms. Timestep: 40
1 6.75321 1.28281 1.33427
1 9.50715 4.00335 1.33621
1 9.51643 1.37886 4.06624
1 1.34816 1.37769 1.37764
1 4.05668 4.124 1.38221
1 6.77994 6.8245 1.39101
1 9.44403 9.51615 1.40023
1 4.1119 1.2996 4.08141
1 6.82372 4.10227 4.0731
1 9.49216 6.72752 4.08077
1 6.77975 1.39197 6.77181
1 9.45715 4.10901 6.81574
1 9.53676 1.35029 9.53405
1 1.36938 6.81115 1.32645
1 4.02219 9.46981 1.31915
1 1.30735 4.05907 4.08183
1 4.09589 6.75855 4.03399
1 6.82945 9.49039 4.12138
1 1.3572 1.39736 6.78249
1 4.09655 4.10937 6.78193
1 6.76814 6.77773 6.83011
1 9.54885 9.5132 6.76365
1 4.09023 1.37165 9.44909
1 6.78125 4.079 9.51961
1 9.50394 6.79509 9.49591
1 1.39373 9.50942 4.09527
1 1.32422 6.83042 6.83083
1 4.13325 9.52956 6.79064
1 1.38291 4.059 9.53731
1 4.05368 6.74385 9.4868
1 6.7784 9.48512 9.51806
1 1.33153 9.5448 9.43212
1 5.3817 -0.0498137 -0.0181643
1 8.16885 2.67419 0.00766017
1 8.11244 0.00505158 2.77167
1 0.0283299 -0.0429552 -0.0059107
1 2.77605 2.75628 0.0188866
1 5.42303 5.4539 0.0269123
1 8.10469 8.1726 0.00536696
1 2.71872 -0.0227234 2.72294
1 5.48233 2.7086 2.68813
1 8.17225 5.38675 2.65632
1 5.46899 -0.015725 5.39866
1 8.18457 2.70972 5.38191
1 8.18306 0.0145017 8.11706
1 0.0185111 5.39936 -0.000765979
1 2.65969 8.1829 -0.0143567
1 0.0052099 2.66782 2.7563
1 2.69005 5.44075 2.73466
1 5.38441 8.2004 2.73278
1 0.00497787 0.0545321 5.40259
1 2.7053 2.68703 5.46147
1 5.39512 5.46646 5.41894
1 8.16051 8.15643 5.47432
1 2.72358 0.0116505 8.10489
1 5.43576 2.67514 8.16073
1 8.12353 5.44636 8.11081
1 -0.0103499 8.16531 2.70384
1 -0.0143098 5.44138 5.46414
1 2.76747 8.09916 5.39873
1 0.0202485 2.73874 8.15636
1 2.7088 5.4411 8.15977
1 5.42535 8.1028 8.18345
1 -0.0480336 8.18571 8.11458
64
Atoms. Timestep: 50
1 6.75569 1.27381 1.32901
1 9.52185 3.98981 1.33845
1 9.51447 1.37179 4.06236
1 1.36154 1.37276 1.37462
1 4.0668 4.12748 1.39293
1 6.77312 6.83152 1.39607
1 9.43942 9.52194 1.3987
1 4.1149 1.30505 4.07575
1 6.82435 4.10409 4.06855
1 9.49073 6.73269 4.07638
1 6.78988 1.3877 6.76004
1 9.46114 4.10279 6.81056
1 9.54873 1.34566 9.52931
1 1.36135 6.81198 1.32994
1 4.0103 9.47379 1.32022
1 1.30971 4.05589 4.09414
1 4.09213 6.7599 4.02658
1 6.82663 9.48599 4.12336
1 1.35345 1.39527 6.78558
1 4.0917 4.10187 6.78861
1 6.76194 6.78434 6.82212
1 9.54899 9.52835 6.75257
1 4.08446 1.36406 9.45614
1 6.78509 4.07463 9.523
1 9.49692 6.79695 9.49615
1 1.3923 9.50614 4.09508
1 1.32799 6.83376 6.82729
1 4.13791 9.51667 6.78357
1 1.39259 4.0604 9.53747
1 4.04307 6.75278 9.50268
1 6.77833 9.49049 9.50715
1 1.33115 9.54271 9.42077
1 5.3698 -0.0558498 -0.0290186
1 8.15653 2.6622 0.00646555
1 8.11034 0.00832355 2.77864
1 0.0218381 -0.0413451 0.00547132
1 2.77897 2.75084 0.0214571
1 5.42237 5.45883 0.0314959
1 8.10679 8.16847 0.0105546
1 2.72071 -0.0236 2.71762
1 5.47839 2.70938 2.69054
1 8.17342 5.38428 2.65108
1 5.48321 -0.0158268 5.4072
1 8.18337 2.7212 5.38866
1 8.18134 0.0138016 8.11975
1 0.0161185 5.39774 -0.000536816
1 2.65588 8.1778 -0.0421277
1 -0.00224311 2.67144 2.75099
1 2.67884 5.44209 2.73464
1 5.3897 8.20316 2.73571
1 0.0139225 0.0581974 5.40313
1 2.71599 2.69413 5.45214
1 5.40926 5.46749 5.41636
1 8.16537 8.14098 5.48253
1 2.7254 0.0224274 8.09294
1 5.43998 2.693 8.15309
1 8.11612 5.4483 8.12706
1 -0.0119815 8.16008 2.71286
1 -0.018117 5.43954 5.47542
1 2.77617 8.10065 5.40991
1 0.0152387 2.74585 8.16236
1 2.70049 5.43632 8.15676
1 5.42406 8.10212 8.18818
1 -0.0498758 8.19097 8.11952
64
Atoms. Timestep: 60
1 6.76022 1.26966 1.32522
1 9.53795 3.98027 1.34192
1 9.51041 1.36206 4.05961
1 1.37873 1.36456 1.36913
1 4.08061 4.1262 1.40392
1 6.76596 6.83608 1.39886
1 9.44031 9.52714 1.39409
1 4.11545 1.31754 4.06799
1 6.82172 4.10291 4.06231
1 9.49037 6.74423 4.07089
1 6.80477 1.38033 6.74873
1 9.47022 4.09242 6.80398
1 9.55878 1.34065 9.52061
1 1.3491 6.81106 1.33639
1 4.00054 9.48071 1.32393
1 1.31705 4.05407 4.10868
1 4.08532 6.76507 4.02236
1 6.82011 9.48084 4.12214
1 1.34937 1.3914 6.78912
1 4.08383 4.09048 6.79616
1 6.75676 6.79303 6.80982
1 9.54412 9.54635 6.74203
1 4.07586 1.3548 9.46914
1 6.78962 4.06923 9.52718
1 9.48825 6.79866 9.49873
1 1.38773 9.50092 4.09321
1 1.33595 6.8335 6.81892
1 4.13832 9.49881 6.77553
1 1.40141 4.06352 9.53468
1 4.03216 6.76719 9.52263
1 6.77951 9.49843 9.49227
1 1.33302 9.53806 9.41381
1 5.36031 -0.0587922 -0.0404829
1 8.1406 2.65018 0.00360305
1 8.11076 0.0106213 2.78081
1 0.0124098 -0.0350738 0.0199756
1 2.77744 2.73986 0.0235611
1 5.42262 5.46291 0.0349112
1 8.11288 8.16153 0.0161431
1 2.7226 -0.0219726 2.71114
1 5.46936 2.71051 2.69626
1 8.17274 5.38613 2.65011
1 5.49629 -0.0146754 5.42063
1 8.17822 2.73567 5.40086
1 8.17612 0.0122899 8.12516
1 0.0110107 5.39911 -0.000498568
1 2.65487 8.16832 -0.0735665
1 -0.00925231 2.67929 2.74054
1 2.6667 5.44229 2.73292
1 5.39987 8.20171 2.737
1 0.0251864 0.0569618 5.40565
1 2.73075 2.70492 5.43781
1 5.42952 5.46403 5.41402
1 8.17 8.1216 5.4868
1 2.7274 0.0329489 8.08151
1 5.44523 2.71775 8.14225
1 8.10913 5.44869 8.15008
1 -0.0138572 8.15269 2.72502
1 -0.0211379 5.43679 5.48529
1 2.78095 8.10755 5.42622
1 0.00796617 2.75218 8.16872
1 2.69149 5.43026 8.15206
1 5.42214 8.10594 8.19003
1 -0.0478454 8.19363 8.1275
64
Atoms. Timestep: 70
1 6.76403 1.27009 1.3237
1 9.55113 3.97598 1.3446
1 9.50488 1.35255 4.05931
1 1.39621 1.35467 1.36265
1 4.09502 4.12045 1.41349
1 6.76008 6.83729 1.399
1 9.44654 9.53025 1.38876
1 4.11444 1.33401 4.05978
1 6.81681 4.09876 4.05491
1 9.49122 6.75861 4.06583
1 6.82255 1.37264 6.74113
1 9.48178 4.08097 6.79945
1 9.56436 1.33598 9.50991
1 1.33402 6.80903 1.34363
1 3.9941 9.48783 1.32825
1 1.32712 4.05432 4.12287
1 4.07692 6.77313 4.02267
1 6.81223 9.47498 4.1191
1 1.34628 1.38886 6.79162
1 4.07509 4.07888 6.802
1 6.75375 6.80147 6.79704
1 9.5351 9.56401 6.73418
1 4.06656 1.34689 9.48405
1 6.79311 4.06423 9.53269
1 9.47958 6.80003 9.50412
1 1.38186 9.49436 4.09052
1 1.3462 6.8299 6.80791
1 4.13534 9.48006 6.76871
1 1.40749 4.0676 9.53011
1 4.02298 6.78319 9.54159
1 6.78179 9.50678 9.47632
1 1.33631 9.53358 9.41181
1 5.35475 -0.0588653 -0.050551
1 8.12523 2.63901 -0.000705025
1 8.11297 0.0105723 2.77766
1 0.00307285 -0.0256196 0.0345821
1 2.77293 2.72576 0.0255702
1 5.42374 5.46574 0.0372117
1 8.12088 8.15403 0.0210018
1 2.72399 -0.0180926 2.70549
1 5.4582 2.71125 2.70393
1 8.1709 5.39193 2.65287
1 5.50565 -0.0127281 5.4358
1 8.17064 2.75023 5.41496
1 8.16914 0.0110449 8.13139
1 0.00398394 5.40304 -0.000943059
1 2.65477 8.15687 -0.101826
1 -0.0123607 2.68849 2.72749
1 2.65508 5.44109 2.73011
1 5.41181 8.19707 2.73601
1 0.0371964 0.0513393 5.40875
1 2.74714 2.71663 5.42164
1 5.45107 5.45618 5.41196
1 8.17373 8.10249 5.4857
1 2.72973 0.0402728 8.07173
1 5.45096 2.74329 8.13044
1 8.10363 5.44723 8.17493
1 -0.0164129 8.14541 2.73786
1 -0.0227907 5.43416 5.49165
1 2.78078 8.11844 5.44375
1 0.00068784 2.75661 8.17442
1 2.68401 5.42482 8.14693
1 5.41923 8.11337 8.18878
1 -0.0431952 8.19357 8.1357
64
Atoms. Timestep: 80
1 6.76464 1.27451 1.32498
1 9.55743 3.9777 1.34473
1 9.49885 1.34597 4.06225
1 1.41047 1.3449 1.3568
1 4.10676 4.11096 1.41995
1 6.75704 6.8346 1.39631
1 9.45745 9.53002 1.38485
1 4.1129 1.35083 4.05297
1 6.8109 4.09202 4.04712
1 9.4933 6.77198 4.06264
1 6.84055 1.36726 6.74004
1 9.49296 4.07173 6.79995
1 9.56359 1.33231 9.4994
1 1.31796 6.80659 1.34962
1 3.99189 9.49245 1.33124
1 1.33749 4.05699 4.13394
1 4.06844 6.78272 4.02837
1 6.80528 9.4688 4.11547
1 1.3456 1.39017 6.7916
1 4.06778 4.07071 6.80387
1 6.75391 6.80723 6.78742
1 9.52328 9.57788 6.73072
1 4.05896 1.34309 9.49647
1 6.79404 4.06094 9.5398
1 9.47256 6.80095 9.51218
1 1.3766 9.48739 4.0878
1 1.35656 6.82362 6.79673
1 4.12992 9.46468 6.76504
1 1.40923 4.07177 9.52525
1 4.01742 6.79685 9.55463
1 6.78492 9.51337 9.46245
1 1.34 9.53177 9.41493
1 5.3543 -0.056462 -0.0573556
1 8.11429 2.62979 -0.00589516
1 8.11613 0.00712165 2.76934
1 -0.00337595 -0.0147715 0.0460843
1 2.76704 2.71145 0.0277174
1 5.42542 5.46693 0.0385746
1 8.1286 8.14834 0.0241084
1 2.72468 -0.0126135 2.70252
1 5.44796 2.71088 2.71185
1 8.16865 5.40081 2.65857
1 5.50903 -0.0103235 5.44935
1 8.16256 2.76204 5.4274
1 8.16229 0.0110218 8.13662
1 -0.00400674 5.4088 -0.00210673
1 2.65379 8.14599 -0.120247
1 -0.00885337 2.69625 2.71472
1 2.64565 5.43854 2.72694
1 5.42228 8.19037 2.73238
1 0.048057 0.0424046 5.41122
1 2.76237 2.72657 5.40699
1 5.46885 5.44479 5.4102
1 8.176 8.08784 5.47865
1 2.73242 0.0421398 8.06475
1 5.45643 2.7634 8.12014
1 8.10065 5.44393 8.19664
1 -0.0198459 8.14034 2.74887
1 -0.0226817 5.43258 5.4928
1 2.77511 8.13134 5.45845
1 -0.00442305 2.75813 8.17854
1 2.68018 5.42178 8.14263
1 5.41521 8.12302 8.18457
1 -0.0374568 8.19083 8.14146
64
Atoms. Timestep: 90
1 6.76074 1.28201 1.32925
1 9.5543 3.98546 1.34136
1 9.49351 1.34411 4.06828
1 1.41884 1.33688 1.35294
1 4.11307 4.0988 1.42206
1 6.75798 6.82808 1.39088
1 9.47193 9.52583 1.38361
1 4.11172 1.36461 4.04918
1 6.80537 4.08345 4.03975
1 9.49654 6.78119 4.06229
1 6.85582 1.366 6.7469
1 9.50139 4.06732 6.80698
1 9.55587 1.33007 9.49099
1 1.30279 6.80431 1.35296
1 3.99431 9.49276 1.33158
1 1.34616 4.06187 4.13955
1 4.06116 6.79218 4.03946
1 6.80085 9.46301 4.11189
1 1.3485 1.39646 6.78807
1 4.06381 4.06849 6.80045
1 6.75781 6.80838 6.78348
1 9.51033 9.58493 6.73246
1 4.05515 1.34506 9.50276
1 6.79151 4.06008 9.54822
1 9.46852 6.80149 9.52202
1 1.37342 9.4812 4.08543
1 1.36501 6.8156 6.78763
1 4.12289 9.45615 6.7656
1 1.40578 4.07527 9.52152
1 4.01683 6.8052 9.55823
1 6.78851 9.51663 9.45329
1 1.34312 9.53415 9.42278
1 5.35947 -0.0520534 -0.0596371
1 8.11029 2.62372 -0.0111125
1 8.11953 -8.36463e-05 2.7567
1 -0.00516816 -0.00424154 0.051861
1 2.76104 2.69972 0.029929
1 5.42703 5.46613 0.0392146
1 8.13425 8.14634 0.0248364
1 2.72477 -0.00656039 2.70351
1 5.44107 2.70899 2.71842
1 8.16659 5.41151 2.66631
1 5.50527 -0.00758166 5.45861
1 8.15583 2.76903 5.43559
1 8.15711 0.0126958 8.1396
1 -0.0120698 5.41542 -0.00407288
1 2.65073 8.1378 -0.123964
1 0.00227012 2.70062 2.7048
1 2.64008 5.43507 2.72399
1 5.42867 8.18249 2.72625
1 0.0559209 0.0316643 5.41239
1 2.77393 2.73292 5.39663
1 5.4789 5.43141 5.40875
1 8.17642 8.08091 5.46624
1 2.73529 0.0377505 8.0616
1 5.46089 2.77339 8.11355
1 8.10088 5.43912 8.21149
1 -0.0239232 8.13884 2.75613
1 -0.0207235 5.43261 5.48802
1 2.76412 8.14416 5.46728
1 -0.0058484 2.75606 8.18047
1 2.68153 5.42226 8.14007
1 5.41042 8.1332 8.17779
1 -0.0320815 8.18569 8.14293
64
Atoms. Timestep: 100
1 6.75266 1.29153 1.33614
1 9.54137 3.9985 1.33477
1 9.4901 1.34737 4.07619
1 1.4201 1.33169 1.35188
1 4.11236 4.08529 1.41931
1 6.76331 6.81842 1.38313
1 9.48848 9.51797 1.38498
1 4.11138 1.37287 4.0494
1 6.80129 4.07405 4.03361
1 9.5007 6.78453 4.06504
1 6.86559 1.36941 6.7612
1 9.50581 4.06906 6.8201
1 9.54214 1.32943 9.48595
1 1.29007 6.8024 1.35331
1 4.00115 9.48841 1.32884
1 1.3521 4.06823 4.13826
1 4.05582 6.79988 4.05491
1 6.7993 9.45859 4.1082
1 1.35557 1.40696 6.78078
1 4.06432 4.07286 6.7919
1 6.76533 6.80401 6.78604
1 9.49803 9.58322 6.73914
1 4.05635 1.35281 9.50096
1 6.78557 4.0616 9.55712
1 9.4681 6.80188 9.53203
1 1.3729 9.47698 4.08336
1 1.37007 6.80688 6.78204
1 4.11479 9.45646 6.77025
1 1.39734 4.07759 9.51995
1 4.02174 6.80693 9.55123
1 6.79211 9.516 9.45038
1 1.34494 9.54076 9.43448
1 5.36987 -0.0461022 -0.0570543
1 8.11369 2.62185 -0.0153345
1 8.12267 -0.0104487 2.74129
1 -0.00202165 0.00465524 0.0504759
1 2.75555 2.69259 0.031716
1 5.42772 5.46314 0.0392833
1 8.13695 8.14894 0.023143
1 2.7247 -0.00120455 2.70873
1 5.43863 2.70558 2.72245
1 8.16503 5.42253 2.67518
1 5.49472 -0.00445695 5.46228
1 8.15195 2.77039 5.4386
1 8.1545 0.015834 8.1399
1 -0.0195626 5.42191 -0.00669726
1 2.64536 8.13349 -0.111088
1 0.0197732 2.701 2.69943
1 2.63966 5.43156 2.72162
1 5.42962 8.17386 2.71829
1 0.0593371 0.0208148 5.41234
1 2.78012 2.73525 5.39209
1 5.47933 5.41812 5.40759
1 8.17479 8.0832 5.45021
1 2.73784 0.0280825 8.06303
1 5.46365 2.77148 8.11204
1 8.1045 5.43346 8.21786
1 -0.0279146 8.14111 2.7587
1 -0.0171506 5.43425 5.47792
1 2.74881 8.15505 5.46882
1 -0.00307974 2.75022 8.18
1 2.68848 5.42638 8.1396
1 5.40569 8.14223 8.16905
1 -0.0280992 8.17865 8.13968
64
Atoms. Timestep: 110
1 6.74247 1.30189 1.3447
1 9.5207 4.01529 1.32656
1 9.48964 1.35463 4.08393
1 1.41471 1.32972 1.35371
1 4.1045 4.07185 1.41206
1 6.77254 6.80696 1.37381
1 9.50544 9.50766 1.38757
1 4.1118 1.37456 4.05386
1 6.7993 4.06501 4.02941
1 9.50539 6.78216 4.07037
1 6.86787 1.37678 6.78054
1 9.50632 4.07666 6.83692
1 9.52472 1.33038 9.48471
1 1.28081 6.80063 1.35144
1 4.01166 9.48064 1.32364
1 1.35534 4.07495 4.12984
1 4.05258 6.80456 4.0727
1 6.79973 9.45658 4.10365
1 1.36657 1.41914 6.77044
1 4.06954 4.08251 6.77976
1 6.77562 6.79442 6.7941
1 9.48802 9.5723 6.74945
1 4.06258 1.3646 9.4913
1 6.77721 4.06472 9.56513
1 9.47124 6.80249 9.54016
1 1.37461 9.47577 4.0812
1 1.37109 6.79848 6.78036
1 4.10581 9.46575 6.77765
1 1.38516 4.07861 9.52088
1 4.03167 6.80257 9.53512
1 6.79516 9.51204 9.4539
1 1.34513 9.55004 9.44871
1 5.38423 -0.0390028 -0.0502801
1 8.1228 2.62488 -0.0175361
1 8.12549 -0.0224237 2.72518
1 0.00483989 0.0111787 0.0419784
1 2.75049 2.69097 0.0322013
1 5.42657 5.45792 0.0387941
1 8.13687 8.15586 0.0195812
1 2.7252 0.00215631 2.71735
1 5.44032 2.70111 2.72343
1 8.16392 5.43238 2.68445
1 5.47936 -0.00087074 5.46063
1 8.15171 2.76658 5.43727
1 8.15451 0.0194897 8.13796
1 -0.0261879 5.42738 -0.00959788
1 2.6385 8.13316 -0.0832368
1 0.0402734 2.6983 2.69904
1 2.64506 5.42912 2.71993
1 5.42525 8.16441 2.70962
1 0.0575102 0.011425 5.41185
1 2.78038 2.73453 5.39341
1 5.47074 5.40719 5.40667
1 8.17106 8.09417 5.43312
1 2.73937 0.0156814 8.06941
1 5.46423 2.75916 8.11588
1 8.11105 5.42783 8.21651
1 -0.0307102 8.14618 2.75677
1 -0.012453 5.43682 5.46432
1 2.73085 8.16274 5.46359
1 0.00331043 2.74099 8.17731
1 2.70019 5.43313 8.14094
1 5.40225 8.14877 8.15905
1 -0.0258856 8.17042 8.13284
64
Atoms. Timestep: 120
1 6.73341 1.312 1.35361
1 9.49632 4.03373 1.31928
1 9.49267 1.36365 4.08911
1 1.40451 1.33066 1.35788
1 4.09076 4.05985 1.40145
1 6.78432 6.79534 1.36386
1 9.52118 9.49682 1.38914
1 4.11237 1.37012 4.06195
1 6.79947 4.05745 4.02773
1 9.51007 6.77585 4.0771
1 6.8618 1.38627 6.80118
1 9.50419 4.08835 6.85373
1 9.50682 1.33271 9.48691
1 1.2755 6.7984 1.34902
1 4.0247 9.47187 1.31762
1 1.35685 4.08091 4.11519
1 4.0511 6.8056 4.09024
1 6.80026 9.45786 4.09714
1 1.38039 1.42932 6.75863
1 4.07883 4.09454 6.7667
1 6.78724 6.78111 6.80499
1 9.48159 9.55341 6.7614
1 4.07264 1.37742 9.47614
1 6.76808 4.06812 9.57063
1 9.47712 6.80372 9.54441
1 1.37726 9.4782 4.07844
1 1.36824 6.79127 6.78203
1 4.09588 9.48236 6.78565
1 1.37131 4.0786 9.52393
1 4.04512 6.79436 9.5137
1 6.79715 9.50623 9.46271
1 1.34379 9.55917 9.46394
1 5.40053 -0.0310561 -0.0408513
1 8.13427 2.63299 -0.016874
1 8.12827 -0.0337837 2.7106
1 0.0130773 0.0151911 0.0278573
1 2.74527 2.6945 0.0303147
1 5.42294 5.45068 0.0376003
1 8.13516 8.16562 0.0151108
1 2.72709 0.00248153 2.72758
1 5.44449 2.69636 2.72155
1 8.1629 5.43975 2.69353
1 5.4623 0.00318614 5.45525
1 8.15518 2.75911 5.43376
1 8.15636 0.0222368 8.13489
1 -0.0319649 5.43124 -0.0122221
1 2.63187 8.13593 -0.0452915
1 0.0589552 2.69463 2.70274
1 2.65612 5.42887 2.71877
1 5.41703 8.15376 2.70153
1 0.0504444 0.00462401 5.4121
1 2.77533 2.73276 5.39922
1 5.45598 5.40056 5.40602
1 8.16537 8.11133 5.41789
1 2.73914 0.00401158 8.08056
1 5.46241 2.74072 8.12418
1 8.11956 5.42314 8.21016
1 -0.0311126 8.15216 2.75145
1 -0.00726465 5.43917 5.44986
1 2.71235 8.16671 5.45371
1 0.0118796 2.72936 8.17289
1 2.71472 5.44063 8.14333
1 5.40149 8.15206 8.14856
1 -0.0250979 8.16183 8.12475
64
Atoms. Timestep: 130
1 6.72905 1.32103 1.36139
1 9.47334 4.05144 1.3158
1 9.49903 1.37171 4.08969
1 1.39225 1.33368 1.36338
1 4.0735 4.05041 1.38914
1 6.79667 6.78521 1.35432
1 9.53434 9.48768 1.38729
1 4.1122 1.36131 4.07244
1 6.80135 4.05227 4.02906
1 9.5141 6.76843 4.08373
1 6.84789 1.39541 6.819
1 9.50144 4.10128 6.86649
1 9.49182 1.33617 9.49157
1 1.27427 6.795 1.34815
1 4.03899 9.46495 1.31304
1 1.35813 4.08523 4.09622
1 4.05072 6.80313 4.10486
1 6.79864 9.46293 4.08777
1 1.39514 1.43374 6.7475
1 4.09076 4.1054 6.75587
1 6.79845 6.7664 6.81512
1 9.47942 9.52923 6.77278
1 4.08448 1.38789 9.45938
1 6.76006 4.07041 9.57219
1 9.48447 6.80587 9.54336
1 1.37907 9.48435 4.07473
1 1.36242 6.78584 6.78586
1 4.08481 9.50318 6.79194
1 1.35817 4.07812 9.52795
1 4.0598 6.78556 9.4922
1 6.79771 9.50049 9.4747
1 1.34138 9.56477 9.47867
1 5.41643 -0.0224776 -0.030784
1 8.14408 2.64579 -0.0128758
1 8.13165 -0.0421449 2.69947
1 0.0199301 0.0170554 0.0106718
1 2.73914 2.70165 0.0251109
1 5.41668 5.44177 0.0354519
1 8.13353 8.17601 0.0107603
1 2.73107 -0.000719615 2.73706
1 5.44877 2.69218 2.71758
1 8.16147 5.4438 2.70209
1 5.447 0.00761366 5.44844
1 8.16163 2.75008 5.43072
1 8.15871 0.0225767 8.13216
1 -0.0370868 5.43324 -0.0139639
1 2.62772 8.14014 -0.0043501
1 0.070761 2.69269 2.70856
1 2.67176 5.43151 2.71781
1 5.4073 8.14153 2.69523
1 0.0389541 0.000896174 5.41424
1 2.7666 2.73219 5.40716
1 5.43929 5.39947 5.4057
1 8.158 8.13082 5.40714
1 2.73665 -0.00346221 8.09566
1 5.45827 2.72192 8.13516
1 8.1288 5.42014 8.2025
1 -0.0282197 8.15689 2.74441
1 -0.00221778 5.43998 5.43727
1 2.69548 8.16722 5.44224
1 0.0207498 2.71674 8.16742
1 2.72946 5.44659 8.14574
1 5.40456 8.15207 8.1383
1 -0.0248035 8.15376 8.11832
64
Atoms. Timestep: 140
1 6.73222 1.32855 1.36684
1 9.45654 4.06631 1.31844
1 9.50784 1.37639 4.0847
1 1.38075 1.33777 1.36899
1 4.05557 4.04428 1.37687
1 6.8074 6.77771 1.34608
1 9.54397 9.48226 1.38037
1 4.11038 1.3507 4.0837
1 6.8041 4.05004 4.03364
1 9.51682 6.7629 4.08886
1 6.82801 1.40171 6.83048
1 9.50022 4.11229 6.87197
1 9.48234 1.34056 9.49741
1 1.27704 6.78981 1.35067
1 4.05338 9.46225 1.31216
1 1.3606 4.08757 4.07538
1 4.05069 6.798 4.11444
1 6.79306 9.47166 4.07523
1 1.40847 1.42964 6.7393
1 4.10335 4.11187 6.7501
1 6.80768 6.75285 6.82097
1 9.48144 9.50337 6.78171
1 4.09562 1.39324 9.44556
1 6.75476 4.07059 9.56899
1 9.49182 6.80904 9.53663
1 1.37833 9.49376 4.07013
1 1.35499 6.78239 6.79048
1 4.07264 9.52437 6.79474
1 1.34782 4.07788 9.53136
1 4.07306 6.77962 9.47587
1 6.79671 9.4966 9.48745
1 1.33866 9.56388 9.49166
1 5.42976 -0.0134422 -0.0220278
1 8.1488 2.66233 -0.00560515
1 8.13635 -0.0455735 2.69293
1 0.0230467 0.0174359 -0.0065453
1 2.73156 2.71012 0.0161003
1 5.40831 5.43181 0.0321075
1 8.13369 8.18456 0.00726578
1 2.73737 -0.00716281 2.7435
1 5.45076 2.6893 2.71267
1 8.15915 5.44427 2.70997
1 5.43629 0.0121813 5.44243
1 8.16982 2.74152 5.43043
1 8.16005 0.0193869 8.1311
1 -0.0417315 5.43355 -0.0142909
1 2.62823 8.14387 0.0319586
1 0.0717813 2.69487 2.71403
1 2.6901 5.43704 2.71658
1 5.39867 8.12769 2.69154
1 0.02453 4.93041e-05 5.41891
1 2.75637 2.73457 5.4146
1 5.42524 5.40408 5.40584
1 8.14942 8.14842 5.40251
1 2.73178 -0.0042583 8.1134
1 5.45226 2.7083 8.14655
1 8.13749 5.41924 8.19692
1 -0.0217693 8.15856 2.73735
1 0.00222496 5.43818 5.42861
1 2.68207 8.16515 5.43226
1 0.0281321 2.70468 8.16151
1 2.74181 5.44899 8.14725
1 5.41191 8.14951 8.12886
1 -0.023773 8.14693 8.11614
64
Atoms. Timestep: 150
1 6.7442 1.33449 1.36931
1 9.44905 4.07695 1.32821
1 9.51768 1.37632 4.07462
1 1.37218 1.342 1.3735
1 4.03968 4.04168 1.36611
1 6.81461 6.77325 1.33979
1 9.5496 9.4818 1.36809
1 4.10633 1.34108 4.09406
1 6.80667 4.0508 4.04152
1 9.5177 6.76157 4.09166
1 6.80507 1.40338 6.83365
1 9.50217 4.11863 6.86855
1 9.47951 1.34577 9.50316
1 1.28365 6.78262 1.35749
1 4.06705 9.46497 1.31649
1 1.36506 4.08816 4.05528
1 4.05047 6.79154 4.11781
1 6.78276 9.48324 4.06004
1 1.418 1.41611 6.73582
1 4.11448 4.11197 6.75114
1 6.81391 6.74272 6.82014
1 9.48683 9.4796 6.7872
1 4.10378 1.39216 9.43876
1 6.75311 4.06835 9.56105
1 9.49784 6.81305 9.52514
1 1.37388 9.50536 4.06518
1 1.3475 6.78071 6.79477
1 4.05986 9.54222 6.79334
1 1.34156 4.07849 9.53247
1 4.08252 6.77912 9.46865
1 6.79431 9.49569 9.49873
1 1.33654 9.55483 9.50214
1 5.43907 -0.00417563 -0.0159061
1 8.14668 2.68129 0.00424675
1 8.14295 -0.0431074 2.69107
1 0.0212125 0.0170523 -0.0209505
1 2.72241 2.7174 0.00349358
1 5.39895 5.4216 0.0274204
1 8.13683 8.18921 0.00483059
1 2.74557 -0.0157181 2.74524
1 5.44875 2.68818 2.70804
1 8.15573 5.4416 2.71711
1 5.43158 0.0164964 5.43871
1 8.17819 2.73477 5.43417
1 8.15921 0.0122888 8.13244
1 -0.0458957 5.43263 -0.0128504
1 2.63495 8.14551 0.0573835
1 0.0604664 2.70247 2.71689
1 2.70889 5.44461 2.71469
1 5.39333 8.11287 2.69074
1 0.00907489 0.00134481 5.42597
1 2.74683 2.74049 5.41935
1 5.41748 5.41344 5.40659
1 8.14014 8.16063 5.40418
1 2.72488 0.00231896 8.13215
1 5.4451 2.70361 8.15618
1 8.14462 5.42038 8.19543
1 -0.012325 8.15629 2.73153
1 0.00590295 5.43335 5.42477
1 2.67323 8.16173 5.42603
1 0.032769 2.69462 8.15559
1 2.7497 5.44672 8.14729
1 5.42304 8.14568 8.12062
1 -0.020863 8.14178 8.1197
64
Atoms. Timestep: 160
1 6.76418 1.33914 1.36888
1 9.45151 4.08307 1.34439
1 9.52682 1.37154 4.06149
1 1.36749 1.34573 1.37598
1 4.0279 4.04233 1.35771
1 6.81706 6.77135 1.33571
1 9.55118 9.48646 1.35173
1 4.09993 1.33481 4.10199
1 6.80802 4.05406 4.05239
1 9.51643 6.76551 4.09201
1 6.78256 1.39979 6.82848
1 9.50799 4.11855 6.85668
1 9.48268 1.35188 9.50781
1 1.29392 6.77369 1.36812
1 4.07961 9.47281 1.32627
1 1.37142 4.08772 4.03815
1 4.04985 6.78526 4.11504
1 6.7684 9.49624 4.04365
1 1.42176 1.3945 6.73792
1 4.12231 4.10552 6.75905
1 6.81679 6.73754 6.81211
1 9.49423 9.46107 6.78932
1 4.10734 1.38512 9.44164
1 6.75524 4.06431 9.54936
1 9.50169 6.81735 9.51095
1 1.36551 9.5177 4.0608
1 1.34142 6.78021 6.79809
1 4.04748 9.55396 6.78832
1 1.33954 4.08023 9.52992
1 4.08676 6.78505 9.47205
1 6.79089 9.49792 9.50703
1 1.33596 9.53784 9.50989
1 5.44398 0.00493698 -0.012731
1 8.13817 2.70119 0.0154058
1 8.15165 -0.0350387 2.69293
1 0.0147342 0.0164611 -0.0304573
1 2.71207 2.72138 -0.0116899
1 5.39022 5.41208 0.0213628
1 8.14322 8.18876 0.00309746
1 2.75449 -0.0245582 2.74177
1 5.44219 2.68893 2.70481
1 8.15132 5.4368 2.72354
1 5.43247 0.0199989 5.43768
1 8.18528 2.73009 5.44177
1 8.15571 0.00184698 8.13608
1 -0.0492908 5.43115 -0.00954574
1 2.64832 8.14422 0.0685914
1 0.0382492 2.71512 2.71579
1 2.72586 5.45265 2.71193
1 5.39265 8.09836 2.69255
1 -0.00544702 0.00370997 5.43448
1 2.73962 2.74918 5.42036
1 5.41786 5.42565 5.40811
1 8.13064 8.16554 5.41078
1 2.71667 0.0148009 8.15038
1 5.43769 2.70877 8.16249
1 8.14962 5.42309 8.19802
1 -0.00123813 8.15041 2.7275
1 0.00897631 5.42592 5.42527
1 2.66916 8.1582 5.42448
1 0.0341787 2.68761 8.14979
1 2.75206 5.43995 8.14578
1 5.43643 8.14214 8.11374
1 -0.0153785 8.1384 8.129
64
Atoms. Timestep: 170
1 6.78936 1.34304 1.36628
1 9.46196 4.08549 1.36464
1 9.53355 1.36354 4.04835
1 1.36625 1.34878 1.37585
1 4.02132 4.04544 1.35174
1 6.81443 6.77086 1.33374
1 9.5491 9.49521 1.33392
1 4.09161 1.33334 4.10638
1 6.80738 4.05882 4.06554
1 9.51306 6.77432 4.09047
1 6.76393 1.39155 6.81686
1 9.51723 4.11164 6.83866
1 9.48963 1.35903 9.51082
1 1.30759 6.76391 1.38069
1 4.09096 9.48413 1.34032
1 1.37871 4.08716 4.02547
1 4.0491 6.7805 4.10725
1 6.75215 9.50885 4.02818
1 1.41868 1.36819 6.74533
1 4.12559 4.09418 6.77224
1 6.81667 6.73788 6.79834
1 9.50204 9.44979 6.7891
1 4.10562 1.37422 9.45475
1 6.76045 4.05984 9.53562
1 9.50317 6.82113 9.49689
1 1.35407 9.5291 4.05805
1 1.33788 6.78009 6.80028