LAMMPS (27 May 2021)
#echo screen

variable nsample equal 10
variable nsteps equal 2000

boundary p p p
units metal
atom_style atomic
atom_modify map array

read_data DATA
Reading data file ...
  orthogonal box = (0.0000000 0.0000000 0.0000000) to (10.862000 10.862000 10.862000)
  1 by 1 by 1 MPI processor grid
  reading atoms ...
  64 atoms
  read_data CPU = 0.002 seconds

neighbor    1.0 bin
#neigh_modify once yes

####################################################################################################

pair_style edip
pair_coeff * * Si.edip Si
Reading potential file Si.edip with DATE: 2011-09-15

# Initialize velocity, thermo settings, timestep and ensemble
velocity	 all create 200.0 20101 rot yes mom yes
thermo  	 ${nsample}
thermo  	 10
#thermo_style custom step etotal pe ke temp
thermo_style custom step etotal pe temp
fix 1 all nve
#fix 1 all nvt temp 1000.0 1000.0 1.0
#fix 2 all temp/rescale 1000 1000.0 1000.0 1.0 1.0
timestep  0.0005

#fix 2 all momentum 1 linear 1 1 1

#fix test all mode -0.1 0.1 0.1 # Initialize mode temperatures

# Run MD
dump 1 all xyz ${nsample} dump.xyz
dump 1 all xyz 10 dump.xyz
dump_modify 1 pbc no
dump 2 all custom ${nsample} dump.positions_and_forces id type x y z fx fy fz
dump 2 all custom 10 dump.positions_and_forces id type x y z fx fy fz
#dump 3 all custom 1000 dump.positions id type x y z
#dump 3 all custom 1 dump.vel id vx vy vz
#dump_modify 3 format float %20.15g scale yes
dump_modify 2 sort id
#dump_modify 3 sort id
#dump_modify 3 sort id
run ${nsteps}
run 2000
Neighbor list info ...
  update every 1 steps, delay 10 steps, check yes
  max neighbors/atom: 2000, page size: 100000
  master list distance cutoff = 4.121382
  ghost atom cutoff = 4.121382
  binsize = 2.060691, bins = 6 6 6
  1 neighbor lists, perpetual/occasional/extra = 1 0 0
  (1) pair edip, perpetual
      attributes: full, newton on
      pair build: full/bin/atomonly
      stencil: full/bin/3d
      bin: standard
Per MPI rank memory allocation (min/avg/max) = 5.333 | 5.333 | 5.333 Mbytes
Step TotEng PotEng Temp 
       0   -295.96833   -297.59701          200 
      10   -295.96818   -297.33573    167.93413 
      20   -295.96787   -296.77699     99.35965 
      30   -295.96769    -296.3778    50.360483 
      40   -295.96779   -296.39996    53.068977 
      50   -295.96805   -296.69778    89.610459 
      60   -295.96819   -296.90418    114.93833 
      70    -295.9681   -296.80672    102.98229 
      80   -295.96788   -296.53759    69.959627 
      90   -295.96778   -296.40625     53.84441 
     100   -295.96788   -296.56876    73.786992 
     110   -295.96808   -296.87657    111.56229 
     120   -295.96816   -297.04508    132.24508 
     130   -295.96805   -296.95221    120.85317 
     140   -295.96789   -296.75099    96.164136 
     150   -295.96784   -296.68449    88.003891 
     160   -295.96797   -296.81489    104.00186 
     170   -295.96811   -296.96523    122.44528 
     180   -295.96811   -296.92933    118.03776 
     190   -295.96795   -296.71103    91.248714 
     200   -295.96781   -296.53137    69.204382 
     210   -295.96783   -296.59825    77.414961 
     220   -295.96801    -296.8799    111.98004 
     230   -295.96816   -297.12134    141.60949 
     240   -295.96815   -297.09522    138.40427 
     250   -295.96798   -296.82701    105.48826 
     260   -295.96783   -296.56021    72.743536 
     270   -295.96784   -296.50913    66.469138 
     280   -295.96798   -296.66094    85.094508 
     290   -295.96809   -296.81854    104.43483 
     300   -295.96807   -296.81932    104.53275 
     310   -295.96795   -296.69238    88.958785 
     320   -295.96788   -296.60034    77.665259 
     330   -295.96792   -296.64889    83.621767 
     340   -295.96802   -296.77924    99.616784 
     350   -295.96805   -296.85421    108.81929 
     360   -295.96798    -296.8287    105.69559 
     370    -295.9679   -296.80188    102.41131 
     380   -295.96792   -296.88909    113.11838 
     390   -295.96804   -297.06167    134.29731 
     400   -295.96814   -297.14503    144.52129 
     410   -295.96809   -296.99786    126.45382 
     420   -295.96793   -296.68557    88.125444 
     430   -295.96781   -296.44462    58.552888 
     440   -295.96784   -296.45863    60.268798 
     450     -295.968   -296.67549    86.879027 
     460   -295.96813   -296.85643    109.08232 
     470   -295.96809   -296.81729    104.28069 
     480   -295.96792   -296.61958    80.022466 
     490   -295.96781   -296.50438    65.889665 
     500   -295.96787   -296.63555    81.990089 
     510   -295.96804   -296.92686    117.74144 
     520   -295.96815   -297.12832    142.46688 
     530    -295.9681   -297.07547    135.98419 
     540   -295.96794   -296.84634    107.86664 
     550   -295.96785   -296.66938    86.147383 
     560    -295.9679   -296.68547    88.117237 
     570   -295.96804   -296.81589    104.11593 
     580   -295.96809   -296.86755    110.45214 
     590   -295.96801   -296.75565    96.721407 
     600   -295.96788   -296.60092     77.73645 
     610   -295.96785   -296.59342     76.81908 
     620   -295.96797   -296.77313     98.87308 
     630   -295.96811   -296.97222    123.30403 
     640   -295.96812   -296.98766    125.19822 
     650   -295.96799   -296.79994    102.16229 
     660   -295.96785   -296.59839    77.428999 
     670   -295.96785   -296.58367     75.62228 
     680   -295.96798   -296.75963    97.213277 
     690   -295.96811   -296.93258    118.43628 
     700    -295.9681   -296.91678    116.49685 
     710   -295.96796    -296.7306    93.652203 
     720   -295.96784   -296.57614    74.698458 
     730   -295.96787   -296.62313    80.465535 
     740   -295.96802   -296.82814    105.62267 
     750   -295.96812   -296.98314    124.64442 
     760   -295.96807   -296.94138    119.52193 
     770   -295.96793   -296.77287    98.846217 
     780   -295.96785   -296.68014    87.467975 
     790   -295.96792   -296.77154    98.683723 
     800   -295.96807   -296.94071    119.43953 
     810   -295.96813   -296.97956    124.20255 
     820   -295.96803   -296.80336     102.5779 
     830   -295.96788   -296.54983    71.463893 
     840   -295.96782   -296.44552    58.660812 
     850   -295.96791   -296.57621    74.697684 
     860   -295.96806   -296.80154    102.35044 
     870   -295.96811   -296.90483     115.0289 
     880   -295.96801   -296.82033    104.66409 
     890   -295.96787   -296.69742    89.587644 
     900   -295.96785   -296.73436    94.126495 
     910   -295.96799   -296.95473    121.17131 
     920   -295.96814   -297.16211    146.61844 
     930   -295.96815   -297.13231    142.95742 
     940     -295.968   -296.84959    108.25812 
     950   -295.96784   -296.53269     69.36274 
     960   -295.96782   -296.42121    55.676686 
     970   -295.96794   -296.54872    71.318764 
     980   -295.96808   -296.73164    93.765215 
     990   -295.96808   -296.77538    99.136366 
    1000   -295.96796   -296.67684    87.050244 
    1010   -295.96785   -296.61181    79.077666 
    1020   -295.96789   -296.73025    93.617037 
    1030   -295.96803   -296.98336    124.68214 
    1040   -295.96814   -297.16312    146.74213 
    1050   -295.96811    -297.1088      140.076 
    1060   -295.96797   -296.86521       110.18 
    1070   -295.96786   -296.63375     81.77068 
    1080   -295.96787   -296.57606      74.6842 
    1090   -295.96798   -296.67347    86.634158 
    1100   -295.96805   -296.77592    99.204814 
    1110   -295.96803   -296.77332    98.888947 
    1120   -295.96794   -296.70215    90.159517 
    1130    -295.9679   -296.68377    87.908468 
    1140   -295.96795   -296.77681    99.326716 
    1150   -295.96804   -296.90713    115.31901 
    1160   -295.96807   -296.94616    120.10763 
    1170   -295.96801   -296.84818    108.08299 
    1180   -295.96793    -296.6986    89.726036 
    1190    -295.9679     -296.625    80.691783 
    1200   -295.96795   -296.66941     86.13797 
    1210   -295.96802   -296.75701    96.887188 
    1220   -295.96803   -296.78831    100.72925 
    1230   -295.96797   -296.74905    95.915329 
    1240   -295.96792   -296.71824    92.138883 
    1250   -295.96793   -296.77054     98.55935 
    1260     -295.968   -296.88648    112.78842 
    1270   -295.96805    -296.9711    123.17386 
    1280   -295.96803     -296.956    121.32168 
    1290   -295.96797   -296.86882    110.62349 
    1300   -295.96793   -296.79653    101.75118 
    1310   -295.96796   -296.78657     100.5236 
    1320   -295.96802    -296.7963    101.71249 
    1330   -295.96803   -296.74908    95.912243 
    1340   -295.96797   -296.63338    81.711168 
    1350   -295.96791      -296.53    69.024207 
    1360    -295.9679   -296.53357    69.463791 
    1370   -295.96797    -296.6514    83.924855 
    1380   -295.96804   -296.78832    100.72953 
    1390   -295.96804   -296.84087    107.18229 
    1400   -295.96797   -296.80551    102.84843 
    1410   -295.96791   -296.78013    99.740013 
    1420   -295.96793   -296.85257    108.63315 
    1430   -295.96802   -296.99599    126.23452 
    1440   -295.96808   -297.08511    137.16998 
    1450   -295.96806   -297.02204    129.42743 
    1460   -295.96797   -296.84039    107.13245 
    1470    -295.9679   -296.67291     86.57458 
    1480   -295.96792   -296.61922    79.979135 
    1490   -295.96798   -296.65805    84.739317 
    1500   -295.96802   -296.69241    88.953998 
    1510   -295.96798   -296.67018    86.229404 
    1520   -295.96793   -296.64135    82.695154 
    1530   -295.96793    -296.6871    88.314348 
    1540     -295.968    -296.8071    103.04173 
    1550   -295.96806   -296.90082    114.54135 
    1560   -295.96805   -296.87186    110.98711 
    1570   -295.96796   -296.74095    94.922973 
    1580   -295.96788    -296.6374    82.215915 
    1590    -295.9679   -296.67156    86.408922 
    1600   -295.96799    -296.8206     104.6993 
    1610   -295.96807   -296.94647    120.14631 
    1620   -295.96806   -296.93278    118.46648 
    1630   -295.96796   -296.80517    102.80853 
    1640   -295.96788   -296.70794    90.878727 
    1650   -295.96791   -296.75417    96.551821 
    1660   -295.96801   -296.90321    114.84093 
    1670   -295.96809   -296.99731    126.38659 
    1680   -295.96806    -296.9242     117.4131 
    1690   -295.96794    -296.7364     94.36599 
    1700   -295.96787   -296.59798    77.376809 
    1710   -295.96792   -296.61201    79.094379 
    1720   -295.96802   -296.71523    91.756073 
    1730   -295.96807   -296.75652    96.821827 
    1740     -295.968   -296.67054    86.271299 
    1750   -295.96789   -296.55297    71.847152 
    1760   -295.96786   -296.55902    72.593582 
    1770   -295.96795   -296.73342     93.99898 
    1780   -295.96807   -296.94868    120.41755 
    1790    -295.9681   -297.02547    129.84403 
    1800   -295.96801   -296.91915    116.79991 
    1810   -295.96788   -296.77086    98.604448 
    1820   -295.96786   -296.76261    97.594531 
    1830   -295.96797   -296.92778     117.8644 
    1840    -295.9681   -297.10994    140.21703 
    1850   -295.96813   -297.11039     140.2682 
    1860   -295.96803   -296.87835    111.78588 
    1870   -295.96789   -296.55964     72.66665 
    1880   -295.96782   -296.36645    48.950892 
    1890   -295.96788   -296.39903    52.944741 
    1900   -295.96799   -296.58012    75.169484 
    1910   -295.96805   -296.74841    95.827037 
    1920   -295.96803   -296.80887    103.25439 
    1930   -295.96796   -296.79495    101.55349 
    1940   -295.96793   -296.79935    102.09662 
    1950   -295.96797   -296.86199    109.78451 
    1960   -295.96802   -296.93236    118.41963 
    1970   -295.96803   -296.93536     118.7869 
    1980   -295.96799   -296.85955    109.48268 
    1990   -295.96794    -296.7686    98.319783 
    2000   -295.96794   -296.73006    93.587146 
Loop time of 0.142199 on 1 procs for 2000 steps with 64 atoms

Performance: 607.598 ns/day, 0.039 hours/ns, 14064.767 timesteps/s
73.1% CPU use with 1 MPI tasks x no OpenMP threads

MPI task timing breakdown:
Section |  min time  |  avg time  |  max time  |%varavg| %total
---------------------------------------------------------------
Pair    | 0.097563   | 0.097563   | 0.097563   |   0.0 | 68.61
Neigh   | 0          | 0          | 0          |   0.0 |  0.00
Comm    | 0.0050657  | 0.0050657  | 0.0050657  |   0.0 |  3.56
Output  | 0.032177   | 0.032177   | 0.032177   |   0.0 | 22.63
Modify  | 0.0032465  | 0.0032465  | 0.0032465  |   0.0 |  2.28
Other   |            | 0.004146   |            |       |  2.92

Nlocal:        64.0000 ave          64 max          64 min
Histogram: 1 0 0 0 0 0 0 0 0 0
Nghost:        363.000 ave         363 max         363 min
Histogram: 1 0 0 0 0 0 0 0 0 0
Neighs:         0.00000 ave           0 max           0 min
Histogram: 1 0 0 0 0 0 0 0 0 0
FullNghs:      1024.00 ave        1024 max        1024 min
Histogram: 1 0 0 0 0 0 0 0 0 0

Total # of neighbors = 1024
Ave neighs/atom = 16.000000
Neighbor list builds = 0
Dangerous builds = 0
unfix 1
undump 1
undump 2

#write_data Si.data
Total wall time: 0:00:00
