LAMMPS DATA file

64 atoms

1 atom types

0.000000 10.862000 xlo xhi
0.000000 10.862000 ylo yhi
0.000000 10.862000 zlo zhi

Masses

1 28.0855

Atoms

1 1 6.821890 1.368850 1.370670
2 1 9.465380 4.111560 1.403620
3 1 9.534630 1.359490 4.082090
4 1 1.336780 1.369320 1.330920
5 1 4.033430 4.015850 1.328420
6 1 6.763270 6.692740 1.353180
7 1 9.520650 9.435750 1.325060
8 1 4.065710 1.376890 4.067170
9 1 6.793690 4.029730 4.126020
10 1 9.481280 6.806900 4.121510
11 1 6.793830 1.356040 6.817540
12 1 9.544880 4.110490 6.826470
13 1 9.464680 1.408020 9.508390
14 1 1.320050 6.742520 1.353310
15 1 4.129680 9.491830 1.336770
16 1 1.395040 4.085510 4.019780
17 1 4.063410 6.772710 4.136750
18 1 6.783500 9.493630 4.000280
19 1 1.407320 1.356700 6.752950
20 1 4.113890 4.109760 6.786440
21 1 6.819880 6.776720 6.799520
22 1 9.523920 9.481060 6.817680
23 1 4.097560 1.381070 9.491280
24 1 6.774430 4.079820 9.502960
25 1 9.478730 6.790320 9.528890
26 1 1.334740 9.533800 4.032150
27 1 1.371330 6.798280 6.799120
28 1 4.054480 9.551700 6.802700
29 1 1.292910 4.111660 9.502770
30 1 4.059930 6.819250 9.457010
31 1 6.766200 9.498210 9.513280
32 1 1.367150 9.511090 9.547760
33 1 5.472640 0.020038 0.028036
34 1 8.170250 2.767090 0.005129
35 1 8.177730 -0.034020 2.686510
36 1 0.017734 0.019678 -0.038879
37 1 2.663380 2.684480 -0.040462
38 1 5.388970 5.372740 -0.006074
39 1 8.106390 8.109800 -0.004071
40 1 2.722340 0.004578 2.684170
41 1 5.433810 2.709770 2.714530
42 1 8.094720 5.445020 2.786310
43 1 5.442920 0.013548 5.407300
44 1 8.241790 2.636330 5.438320
45 1 8.148450 -0.004825 8.134970
46 1 -0.044964 5.438020 0.022202
47 1 2.716710 8.129080 0.075707
48 1 0.030510 2.747390 2.724110
49 1 2.749710 5.407680 2.710960
50 1 5.404950 8.086810 2.692820
51 1 -0.003370 -0.008442 5.445590
52 1 2.755780 2.741710 5.414620
53 1 5.412620 5.442300 5.456190
54 1 8.104280 8.191510 5.389840
55 1 2.704590 -0.004120 8.209430
56 1 5.457730 2.704430 8.168470
57 1 8.166650 5.416340 8.137860
58 1 -0.027097 8.173910 2.697180
59 1 0.053032 5.436040 5.414960
60 1 2.662260 8.153830 5.411320
61 1 0.039845 2.690030 8.123460
62 1 2.725950 5.478690 8.139920
63 1 5.380870 8.199460 8.096340
64 1 -0.009426 8.139860 8.166780
