LAMMPS DATA file

192 atoms
0 bonds
0 angles
0 dihedrals
0 impropers

2 atom types
0 bond types
0 angle types

0.0 12.990503 xlo xhi
0.0 11.250148 ylo yhi
0.0 15.845291 zlo zhi

Masses

1 69.723
2 14.0067

Atoms

1 1 1.510276 0.969043 2.763736 0 0 0
2 1 1.600430 1.000892 7.919001 0 0 0
3 1 1.562108 0.910328 13.190254 0 0 0
4 1 0.057101 3.767900 2.625089 0 0 0
5 1 12.927828 3.782300 7.770847 0 0 0
6 1 12.876354 3.804013 13.047329 0 0 0
7 1 4.910150 1.024821 2.762151 0 0 0
8 1 3.194105 1.945376 5.297714 0 0 0
9 1 4.983936 1.004672 7.846429 0 0 0
10 1 3.377141 1.926025 10.490375 0 0 0
11 1 4.895211 0.993557 13.183123 0 0 0
12 1 3.128373 1.977551 15.834516 0 0 0
13 1 3.139285 3.649548 2.676903 0 0 0
14 1 1.573150 4.741600 5.296288 0 0 0
15 1 3.302835 3.782862 7.855937 0 0 0
16 1 1.635115 4.754538 10.614443 0 0 0
17 1 3.370776 3.786125 13.118633 0 0 0
18 1 1.611082 4.631799 0.077642 0 0 0
19 1 1.629529 6.474573 2.694492 0 0 0
20 1 1.666032 6.653900 7.913930 0 0 0
21 1 1.614330 6.599337 13.337615 0 0 0
22 1 12.945522 9.267872 2.721904 0 0 0
23 1 12.882650 9.383186 8.011696 0 0 0
24 1 0.012349 9.443262 13.140499 0 0 0
25 1 8.092174 0.930905 2.560599 0 0 0
26 1 6.567349 1.873712 5.316570 0 0 0
27 1 8.122182 1.015022 8.012488 0 0 0
28 1 6.494082 1.957638 10.557083 0 0 0
29 1 8.239097 0.841399 13.160148 0 0 0
30 1 6.518894 1.811049 0.050705 0 0 0
31 1 6.538640 3.807388 2.724598 0 0 0
32 1 4.901577 4.757350 5.209773 0 0 0
33 1 6.432897 3.651123 7.987453 0 0 0
34 1 4.857409 4.602886 10.624109 0 0 0
35 1 6.620480 3.736399 13.094865 0 0 0
36 1 4.743612 4.637424 15.823107 0 0 0
37 1 4.752056 6.462873 2.490880 0 0 0
38 1 3.288026 7.394722 5.390726 0 0 0
39 1 4.792456 6.502023 7.788436 0 0 0
40 1 3.355577 7.424198 10.511607 0 0 0
41 1 4.762708 6.584262 13.162841 0 0 0
42 1 3.240091 7.609600 15.733264 0 0 0
43 1 3.363241 9.366536 2.775461 0 0 0
44 1 1.579775 10.400200 5.127853 0 0 0
45 1 3.302706 9.455300 7.850391 0 0 0
46 1 1.655120 10.420675 10.560411 0 0 0
47 1 3.328557 9.417724 13.052083 0 0 0
48 1 1.523137 10.422250 15.763687 0 0 0
49 1 11.255492 0.828596 2.635230 0 0 0
50 1 9.668312 1.943126 5.298348 0 0 0
51 1 11.322523 0.941154 7.889687 0 0 0
52 1 9.754049 1.980701 10.423349 0 0 0
53 1 11.248996 0.886894 13.236047 0 0 0
54 1 9.716117 1.921525 15.804093 0 0 0
55 1 9.645579 3.717611 2.742503 0 0 0
56 1 8.175963 4.702562 5.206446 0 0 0
57 1 9.765091 3.725149 7.813630 0 0 0
58 1 7.995395 4.780863 10.667842 0 0 0
59 1 9.839267 3.806825 13.234462 0 0 0
60 1 8.041381 4.632924 15.684461 0 0 0
61 1 8.077365 6.618687 2.566145 0 0 0
62 1 6.366386 7.394497 5.337011 0 0 0
63 1 8.059828 6.472323 7.879546 0 0 0
64 1 6.529936 7.464361 10.599549 0 0 0
65 1 8.158815 6.656375 13.268054 0 0 0
66 1 6.394705 7.541762 15.756715 0 0 0
67 1 6.593460 9.404224 2.494841 0 0 0
68 1 4.923271 10.297036 5.192185 0 0 0
69 1 6.537731 9.395674 7.998227 0 0 0
70 1 4.826492 10.364987 10.408930 0 0 0
71 1 6.393536 9.460250 13.144619 0 0 0
72 1 4.996537 10.333374 15.763529 0 0 0
73 1 12.952181 1.872137 5.205495 0 0 0
74 1 0.077943 1.822412 10.459952 0 0 0
75 1 0.063653 1.915450 0.058628 0 0 0
76 1 11.279394 4.661724 5.319264 0 0 0
77 1 11.276536 4.611773 10.656750 0 0 0
78 1 11.450609 4.772538 15.719004 0 0 0
79 1 11.403324 6.576612 2.748524 0 0 0
80 1 9.807180 7.394497 5.388350 0 0 0
81 1 11.358506 6.559399 7.922170 0 0 0
82 1 9.713909 7.474036 10.464547 0 0 0
83 1 11.265105 6.610925 13.047488 0 0 0
84 1 9.872133 7.404735 15.805677 0 0 0
85 1 9.699229 9.409736 2.633329 0 0 0
86 1 7.995265 10.209285 5.245900 0 0 0
87 1 9.734823 9.477237 7.850232 0 0 0
88 1 8.160244 10.350249 10.402750 0 0 0
89 1 9.798996 9.368786 13.068403 0 0 0
90 1 8.107243 10.283310 0.136269 0 0 0
91 1 12.924511 7.566062 5.404195 0 0 0
92 1 0.105223 7.438373 10.505428 0 0 0
93 1 12.865015 7.481574 0.095072 0 0 0
94 1 11.455286 10.219072 5.425111 0 0 0
95 1 11.276017 10.374774 10.558826 0 0 0
96 1 11.425148 10.376012 0.137854 0 0 0
97 2 1.652002 0.893476 4.752320 0 0 0
98 2 1.586920 0.851659 9.864803 0 0 0
99 2 1.607315 0.983983 15.315582 0 0 0
100 2 12.889147 3.833826 4.496260 0 0 0
101 2 12.916639 3.639198 9.875419 0 0 0
102 2 0.045210 3.815150 15.196584 0 0 0
103 2 4.885858 0.936057 4.764996 0 0 0
104 2 3.349341 1.893850 1.990802 0 0 0
105 2 4.832597 0.863033 9.955438 0 0 0
106 2 3.156952 1.792374 7.142423 0 0 0
107 2 4.954708 0.849071 15.146355 0 0 0
108 2 3.314657 1.957863 12.415577 0 0 0
109 2 3.264903 3.715361 4.522880 0 0 0
110 2 1.709031 4.708300 2.086033 0 0 0
111 2 3.206446 3.840463 9.787161 0 0 0
112 2 1.647586 4.720225 7.128638 0 0 0
113 2 3.329076 3.853288 15.272483 0 0 0
114 2 1.621734 4.708525 12.509382 0 0 0
115 2 1.532360 6.515748 4.670399 0 0 0
116 2 1.610692 6.645125 9.970174 0 0 0
117 2 1.650833 6.537911 15.181690 0 0 0
118 2 12.935669 9.481850 4.494358 0 0 0
119 2 12.971800 9.280922 10.020562 0 0 0
120 2 0.099744 9.313548 15.183908 0 0 0
121 2 8.155048 0.916403 4.497369 0 0 0
122 2 6.547603 1.938851 2.044835 0 0 0
123 2 8.170897 0.899438 9.963677 0 0 0
124 2 6.578651 1.961463 7.357444 0 0 0
125 2 8.110361 1.002321 15.118942 0 0 0
126 2 6.382884 1.983964 12.538854 0 0 0
127 2 6.404188 3.721437 4.596402 0 0 0
128 2 4.886638 4.753863 1.912051 0 0 0
129 2 6.459658 3.664623 9.914240 0 0 0
130 2 4.948083 4.778275 7.153990 0 0 0
131 2 6.424194 3.706586 15.191672 0 0 0
132 2 4.798822 4.659136 12.512234 0 0 0
133 2 4.932754 6.632412 4.706685 0 0 0
134 2 3.170332 7.399335 2.135470 0 0 0
135 2 4.744392 6.565137 9.796509 0 0 0
136 2 3.257369 7.589125 7.253340 0 0 0
137 2 4.785312 6.534649 15.116883 0 0 0
138 2 3.373893 7.589913 12.591143 0 0 0
139 2 3.198392 9.388361 4.713974 0 0 0
140 2 1.515212 10.363862 1.971154 0 0 0
141 2 3.155393 9.282385 10.034664 0 0 0
142 2 1.611862 10.400087 7.237970 0 0 0
143 2 3.261006 9.282047 15.278346 0 0 0
144 2 1.527293 10.225935 12.570227 0 0 0
145 2 11.488281 0.920330 4.626666 0 0 0
146 2 9.817313 1.893962 1.976542 0 0 0
147 2 11.359675 0.901384 9.949258 0 0 0
148 2 9.645579 1.888000 7.400385 0 0 0
149 2 11.324471 0.898741 15.214806 0 0 0
150 2 9.791722 1.903413 12.685898 0 0 0
151 2 9.699099 3.731337 4.575011 0 0 0
152 2 8.050994 4.665099 2.129924 0 0 0
153 2 9.663116 3.774425 9.799361 0 0 0
154 2 8.055801 4.754988 7.183462 0 0 0
155 2 9.709102 3.708949 15.312730 0 0 0
156 2 7.996434 4.716850 12.464856 0 0 0
157 2 8.174404 6.467148 4.776087 0 0 0
158 2 6.470310 7.574500 1.918231 0 0 0
159 2 7.993057 6.579649 9.768622 0 0 0
160 2 6.522402 7.526462 7.357444 0 0 0
161 2 8.130756 6.556699 15.137165 0 0 0
162 2 6.438223 7.578887 12.458201 0 0 0
163 2 6.400421 9.389261 4.686245 0 0 0
164 2 4.835715 10.354749 1.936928 0 0 0
165 2 6.580729 9.411312 9.862901 0 0 0
166 2 4.762708 10.335286 7.393729 0 0 0
167 2 6.612946 9.359561 15.324139 0 0 0
168 2 4.887027 10.410662 12.391334 0 0 0
169 2 12.972966 1.898688 2.078110 0 0 0
170 2 0.123410 1.953026 7.425579 0 0 0
171 2 0.037672 1.797774 12.400049 0 0 0
172 2 11.482955 4.598498 2.005538 0 0 0
173 2 11.435670 4.696487 7.259045 0 0 0
174 2 11.420601 4.636974 12.540121 0 0 0
175 2 11.461391 6.582462 4.781316 0 0 0
176 2 9.857324 7.600713 2.007440 0 0 0
177 2 11.239903 6.520361 10.026900 0 0 0
178 2 9.656361 7.582037 7.318781 0 0 0
179 2 11.265105 6.669200 15.096917 0 0 0
180 2 9.754049 7.391910 12.574664 0 0 0
181 2 9.726250 9.305785 4.763411 0 0 0
182 2 8.198956 10.350361 1.923143 0 0 0
183 2 9.627782 9.278447 9.963360 0 0 0
184 2 8.130756 10.309298 7.288358 0 0 0
185 2 9.823159 9.441574 15.067604 0 0 0
186 2 8.119324 10.215810 12.665933 0 0 0
187 2 0.098728 7.588112 2.029623 0 0 0
188 2 0.051962 7.477074 7.356652 0 0 0
189 2 12.933085 7.416098 12.663715 0 0 0
190 2 11.493867 10.347324 1.843600 0 0 0
191 2 11.452038 10.407062 7.136560 0 0 0
192 2 11.477369 10.399862 12.468184 0 0 0
