LAMMPS DATA file

192 atoms
0 bonds
0 angles
0 dihedrals
0 impropers

2 atom types
0 bond types
0 angle types

0.0 12.990503 xlo xhi
0.0 11.250148 ylo yhi
0.0 15.845291 zlo zhi

Masses

1 69.723
2 14.0067

Atoms

1 1 1.665253 0.898381 2.483274 0 0 0
2 1 1.642130 0.833186 7.842627 0 0 0
3 1 1.543402 0.926101 13.284058 0 0 0
4 1 0.033240 3.708386 2.569472 0 0 0
5 1 12.880927 3.676211 7.987294 0 0 0
6 1 12.883840 3.844063 13.176627 0 0 0
7 1 4.762189 0.953743 2.740601 0 0 0
8 1 3.208005 1.937951 5.342240 0 0 0
9 1 4.895081 0.909833 7.883507 0 0 0
10 1 3.229049 1.857737 10.468983 0 0 0
11 1 4.870659 0.833985 13.219409 0 0 0
12 1 3.130451 1.958763 0.109333 0 0 0
13 1 3.205666 3.856663 2.779581 0 0 0
14 1 1.750730 4.610536 5.118821 0 0 0
15 1 3.182154 3.715474 7.832644 0 0 0
16 1 1.690324 4.625948 10.541713 0 0 0
17 1 3.185141 3.715361 13.326682 0 0 0
18 1 1.497155 4.604798 15.804410 0 0 0
19 1 1.712278 6.498086 2.773401 0 0 0
20 1 1.745924 6.534536 8.070799 0 0 0
21 1 1.525605 6.621275 13.224004 0 0 0
22 1 0.031480 9.372836 2.546814 0 0 0
23 1 12.898047 9.405574 8.012963 0 0 0
24 1 0.044077 9.368786 13.339833 0 0 0
25 1 8.142837 0.876027 2.693699 0 0 0
26 1 6.448616 1.931088 5.434142 0 0 0
27 1 8.059178 1.034687 7.979371 0 0 0
28 1 6.390158 1.817799 10.695730 0 0 0
29 1 8.113868 1.023583 13.287385 0 0 0
30 1 6.370153 1.935926 0.053874 0 0 0
31 1 6.590732 3.768125 2.675319 0 0 0
32 1 4.770373 4.623136 5.129279 0 0 0
33 1 6.480832 3.710974 7.849757 0 0 0
34 1 4.870529 4.615936 10.695571 0 0 0
35 1 6.609568 3.770600 13.040674 0 0 0
36 1 4.976142 4.728662 15.704743 0 0 0
37 1 5.000434 6.520811 2.733471 0 0 0
38 1 3.237623 7.519712 5.269193 0 0 0
39 1 4.885079 6.489536 7.944829 0 0 0
40 1 3.157991 7.487874 10.569918 0 0 0
41 1 4.861566 6.637812 13.356154 0 0 0
42 1 3.370256 7.555487 15.744673 0 0 0
43 1 3.127204 9.305110 2.659949 0 0 0
44 1 1.657198 10.282185 5.319581 0 0 0
45 1 3.349341 9.319623 7.849440 0 0 0
46 1 1.526514 10.319086 10.659761 0 0 0
47 1 3.195664 9.439887 13.179004 0 0 0
48 1 1.636933 10.422025 0.053874 0 0 0
49 1 11.488801 0.846596 2.761517 0 0 0
50 1 9.628171 1.790236 5.317680 0 0 0
51 1 11.332915 0.896918 8.010904 0 0 0
52 1 9.691305 1.899250 10.545992 0 0 0
53 1 11.312780 1.012311 13.221310 0 0 0
54 1 9.631289 1.822412 15.735483 0 0 0
55 1 9.758596 3.682961 2.633012 0 0 0
56 1 8.178691 4.789976 5.359353 0 0 0
57 1 9.633757 3.848676 8.067471 0 0 0
58 1 8.146864 4.790538 10.504318 0 0 0
59 1 9.847061 3.637623 13.193581 0 0 0
60 1 8.027481 4.645974 15.735641 0 0 0
61 1 8.143227 6.598099 2.587536 0 0 0
62 1 6.379246 7.398210 5.135459 0 0 0
63 1 8.007736 6.453648 8.067313 0 0 0
64 1 6.556307 7.556837 10.410197 0 0 0
65 1 8.019687 6.508886 13.323513 0 0 0
66 1 6.617882 7.611288 15.791258 0 0 0
67 1 6.441341 9.304773 2.712397 0 0 0
68 1 4.928077 10.242585 5.255408 0 0 0
69 1 6.377168 9.410074 8.006150 0 0 0
70 1 4.965750 10.376799 10.536960 0 0 0
71 1 6.455760 9.275072 13.300220 0 0 0
72 1 4.769074 10.201522 15.768441 0 0 0
73 1 0.115615 1.914213 5.240038 0 0 0
74 1 0.092233 1.914325 10.592260 0 0 0
75 1 12.974785 1.978789 0.096656 0 0 0
76 1 11.239513 4.606936 5.270777 0 0 0
77 1 11.387605 4.641024 10.538703 0 0 0
78 1 11.340320 4.605923 0.137854 0 0 0
79 1 11.330317 6.638375 2.490087 0 0 0
80 1 9.723132 7.404623 5.217220 0 0 0
81 1 11.482566 6.642313 7.813630 0 0 0
82 1 9.752231 7.453898 10.685747 0 0 0
83 1 11.257960 6.627237 13.095816 0 0 0
84 1 9.800036 7.439836 15.747050 0 0 0
85 1 9.669091 9.482412 2.597994 0 0 0
86 1 8.154269 10.210635 5.191393 0 0 0
87 1 9.840306 9.366198 7.759756 0 0 0
88 1 8.109971 10.385574 10.675923 0 0 0
89 1 9.691175 9.315685 13.304023 0 0 0
90 1 8.102826 10.314248 15.740078 0 0 0
91 1 12.899959 7.591600 5.432399 0 0 0
92 1 12.961924 7.573600 10.701909 0 0 0
93 1 0.102625 7.576862 0.052289 0 0 0
94 1 11.281473 10.253610 5.255408 0 0 0
95 1 11.243281 10.260585 10.710149 0 0 0
96 1 11.317976 10.328761 0.030106 0 0 0
97 2 1.728127 0.914120 4.688146 0 0 0
98 2 1.547039 0.839149 9.947515 0 0 0
99 2 1.672657 0.891788 15.213222 0 0 0
100 2 12.942758 3.819650 4.584359 0 0 0
101 2 0.051649 3.780050 10.056055 0 0 0
102 2 12.912769 3.772175 15.058572 0 0 0
103 2 4.883000 1.015393 4.481524 0 0 0
104 2 3.203328 1.922088 2.100293 0 0 0
105 2 4.871699 1.048829 9.886194 0 0 0
106 2 3.187220 1.868987 7.160487 0 0 0
107 2 4.782843 0.885387 15.272008 0 0 0
108 2 3.275945 1.980139 12.636302 0 0 0
109 2 3.266592 3.738874 4.559482 0 0 0
110 2 1.689415 4.596248 1.861505 0 0 0
111 2 3.308681 3.717386 9.934363 0 0 0
112 2 1.571591 4.735637 7.223710 0 0 0
113 2 3.304394 3.861501 15.058572 0 0 0
114 2 1.615499 4.596136 12.621091 0 0 0
115 2 1.730855 6.469510 4.633321 0 0 0
116 2 1.637453 6.604287 9.845313 0 0 0
117 2 1.650314 6.494711 15.240159 0 0 0
118 2 0.051537 9.366086 4.518602 0 0 0
119 2 12.970183 9.396686 9.852443 0 0 0
120 2 0.085928 9.290260 15.111654 0 0 0
121 2 8.232731 0.972429 4.707160 0 0 0
122 2 6.576053 1.773473 1.959112 0 0 0
123 2 8.177652 0.856294 9.950842 0 0 0
124 2 6.429520 1.951563 7.374557 0 0 0
125 2 8.106853 0.913827 15.336815 0 0 0
126 2 6.367425 1.852224 12.545826 0 0 0
127 2 6.525909 3.653261 4.513848 0 0 0
128 2 4.911449 4.624148 1.865466 0 0 0
129 2 6.376518 3.674748 9.912338 0 0 0
130 2 4.966919 4.747450 7.152247 0 0 0
131 2 6.382234 3.788825 15.184859 0 0 0
132 2 4.870270 4.645636 12.493695 0 0 0
133 2 4.977701 6.551411 4.705893 0 0 0
134 2 3.165786 7.406760 1.893354 0 0 0
135 2 4.886768 6.598999 10.047974 0 0 0
136 2 3.128113 7.424423 7.248270 0 0 0
137 2 4.826102 6.470298 15.288962 0 0 0
138 2 3.221515 7.535012 12.570861 0 0 0
139 2 3.118500 9.409174 4.568990 0 0 0
140 2 1.563017 10.303786 2.025187 0 0 0
141 2 3.326088 9.388924 9.758164 0 0 0
142 2 1.700067 10.261598 7.370278 0 0 0
143 2 3.296600 9.398486 15.154753 0 0 0
144 2 1.510925 10.424837 12.600650 0 0 0
145 2 11.296282 0.845764 4.544905 0 0 0
146 2 9.847451 1.811386 1.979711 0 0 0
147 2 11.472953 0.868613 9.892373 0 0 0
148 2 9.773535 1.896212 7.320524 0 0 0
149 2 11.306284 0.920386 15.285476 0 0 0
150 2 9.855245 1.868200 12.488307 0 0 0
151 2 9.727159 3.706586 4.555679 0 0 0
152 2 8.025143 4.612561 1.984147 0 0 0
153 2 9.635446 3.846088 9.797460 0 0 0
154 2 8.030859 4.736537 7.323376 0 0 0
155 2 9.706114 3.657873 15.034645 0 0 0
156 2 8.086069 4.752400 12.532991 0 0 0
157 2 8.015011 6.631400 4.677530 0 0 0
158 2 6.482911 7.507561 1.994605 0 0 0
159 2 8.152710 6.595512 9.811087 0 0 0
160 2 6.573584 7.431848 7.239872 0 0 0
161 2 8.050345 6.511361 15.034804 0 0 0
162 2 6.606580 7.504636 12.538378 0 0 0
163 2 6.501357 9.338411 4.573902 0 0 0
164 2 4.998356 10.306711 2.064324 0 0 0
165 2 6.539419 9.441687 9.836756 0 0 0
166 2 4.815320 10.361499 7.167934 0 0 0
167 2 6.581898 9.300835 15.334121 0 0 0
168 2 4.929246 10.230322 12.661496 0 0 0
169 2 0.111718 1.889462 1.954041 0 0 0
170 2 12.975304 1.920400 7.191860 0 0 0
171 2 12.868003 1.975864 12.706972 0 0 0
172 2 11.439307 4.797626 1.982246 0 0 0
173 2 11.270041 4.679499 7.344768 0 0 0
174 2 11.411767 4.771750 12.631549 0 0 0
175 2 11.397088 6.511923 4.575169 0 0 0
176 2 9.830044 7.474373 1.853107 0 0 0
177 2 11.461651 6.548036 9.804907 0 0 0
178 2 9.614142 7.534449 7.226562 0 0 0
179 2 11.334474 6.549386 15.195634 0 0 0
180 2 9.690915 7.495186 12.393236 0 0 0
181 2 9.657530 9.330873 4.704467 0 0 0
182 2 8.140109 10.357899 2.082705 0 0 0
183 2 9.834331 9.289135 9.958607 0 0 0
184 2 8.184796 10.358124 7.301193 0 0 0
185 2 9.622975 9.306573 15.136848 0 0 0
186 2 8.156217 10.248998 12.415577 0 0 0
187 2 0.124709 7.434098 2.139273 0 0 0
188 2 0.028579 7.443436 7.273622 0 0 0
189 2 0.055859 7.446023 12.427620 0 0 0
190 2 11.379551 10.249335 1.926629 0 0 0
191 2 11.489580 10.269698 7.409258 0 0 0
192 2 11.343437 10.202422 12.489416 0 0 0
