LAMMPS DATA file

64 atoms

1 atom types

0.000000 10.862000 xlo xhi
0.000000 10.862000 ylo yhi
0.000000 10.862000 zlo zhi

Masses

1 28.0855

Atoms

1 1 6.852230 1.414750 1.384040
2 1 9.531760 4.101840 1.414690
3 1 9.514130 1.324790 4.078080
4 1 1.303130 1.393270 1.359850
5 1 4.061020 4.093400 1.314540
6 1 6.746160 6.791490 1.375760
7 1 9.480250 9.506410 1.322580
8 1 4.037410 1.338340 4.097360
9 1 6.783670 4.057620 4.106340
10 1 9.481320 6.825240 4.105010
11 1 6.766230 1.324900 6.771190
12 1 9.502450 4.054770 6.721780
13 1 9.517800 1.376450 9.469470
14 1 1.439550 6.768910 1.364490
15 1 4.121530 9.507230 1.389500
16 1 1.374360 4.058400 4.037360
17 1 4.090970 6.796870 4.085510
18 1 6.778020 9.550310 4.011390
19 1 1.333340 1.286800 6.822540
20 1 4.038530 4.066050 6.830030
21 1 6.789410 6.810320 6.757770
22 1 9.521260 9.477580 6.815430
23 1 4.076040 1.319890 9.517320
24 1 6.808890 4.057130 9.462270
25 1 9.528460 6.788200 9.440980
26 1 1.343150 9.547740 4.050430
27 1 1.352480 6.782420 6.774170
28 1 4.036550 9.513710 6.777250
29 1 1.356340 4.069690 9.522860
30 1 4.092600 6.812140 9.506280
31 1 6.758180 9.518080 9.553800
32 1 1.365570 9.460920 9.569070
33 1 5.465310 0.048757 0.027956
34 1 8.157790 2.797920 0.016413
35 1 8.152720 0.017581 2.723070
36 1 -0.013879 -0.009995 -0.025436
37 1 2.668090 2.717870 -0.035561
38 1 5.432250 5.408850 -0.063897
39 1 8.148530 8.105690 -0.002178
40 1 2.709750 -0.004268 2.668940
41 1 5.426660 2.730370 2.716450
42 1 8.122960 5.412770 2.750430
43 1 5.421050 0.000823 5.424860
44 1 8.155270 2.689710 5.410230
45 1 8.115980 -0.037486 8.171240
46 1 -0.001129 5.423060 -0.005463
47 1 2.768490 8.153740 0.032203
48 1 -0.052220 2.727870 2.744900
49 1 2.782270 5.435730 2.715370
50 1 5.449970 8.146200 2.719460
51 1 -0.024434 0.006232 5.448970
52 1 2.658470 2.702180 5.443140
53 1 5.420110 5.432770 5.479590
54 1 8.147210 8.189480 5.453700
55 1 2.715990 -0.008616 8.186990
56 1 5.397930 2.689260 8.148980
57 1 8.165720 5.456480 8.098600
58 1 0.033499 8.124040 2.680760
59 1 -0.010768 5.413770 5.412470
60 1 2.719470 8.143490 5.419060
61 1 -0.006317 2.720880 8.129230
62 1 2.734400 5.439660 8.146670
63 1 5.455870 8.134180 8.118300
64 1 0.036183 8.131350 8.171430
