LAMMPS DATA file

192 atoms
0 bonds
0 angles
0 dihedrals
0 impropers

2 atom types
0 bond types
0 angle types

0.0 12.990503 xlo xhi
0.0 11.250148 ylo yhi
0.0 15.845291 zlo zhi

Masses

1 69.723
2 14.0067

Atoms

1 1 1.583802 1.015922 2.527799 0 0 0
2 1 1.534958 0.939455 7.949899 0 0 0
3 1 1.535867 0.967985 13.307984 0 0 0
4 1 0.073338 3.697024 2.576603 0 0 0
5 1 12.908195 3.738199 7.862275 0 0 0
6 1 12.933300 3.847213 13.167120 0 0 0
7 1 4.840132 0.958400 2.498644 0 0 0
8 1 3.170982 1.925350 5.300091 0 0 0
9 1 4.793496 1.014797 7.893015 0 0 0
10 1 3.259187 1.881362 10.458209 0 0 0
11 1 4.762708 0.929431 13.050181 0 0 0
12 1 3.230738 1.888000 0.038029 0 0 0
13 1 3.126554 3.797263 2.530651 0 0 0
14 1 1.648105 4.711900 5.362522 0 0 0
15 1 3.132400 3.829888 7.880497 0 0 0
16 1 1.597702 4.648336 10.575622 0 0 0
17 1 3.194495 3.719974 13.151116 0 0 0
18 1 1.657588 4.724612 0.150530 0 0 0
19 1 1.739298 6.528911 2.538099 0 0 0
20 1 1.732803 6.515073 7.933262 0 0 0
21 1 1.732803 6.470298 13.122119 0 0 0
22 1 12.971551 9.392636 2.761993 0 0 0
23 1 12.917297 9.480162 7.896184 0 0 0
24 1 0.074002 9.380824 13.145412 0 0 0
25 1 8.101268 0.986537 2.767222 0 0 0
26 1 6.596578 1.792824 5.155899 0 0 0
27 1 8.221300 0.971957 7.771481 0 0 0
28 1 6.496421 1.963826 10.521907 0 0 0
29 1 8.065024 0.877669 13.104214 0 0 0
30 1 6.464204 1.896325 15.766381 0 0 0
31 1 6.527078 3.818525 2.509894 0 0 0
32 1 4.930935 4.721012 5.268242 0 0 0
33 1 6.607749 3.659223 7.948632 0 0 0
34 1 4.802199 4.582298 10.583386 0 0 0
35 1 6.584107 3.762837 13.306558 0 0 0
36 1 4.794795 4.714825 15.736433 0 0 0
37 1 4.816749 6.454210 2.699245 0 0 0
38 1 3.365060 7.556162 5.357610 0 0 0
39 1 4.882351 6.513498 7.836288 0 0 0
40 1 3.192156 7.604313 10.472628 0 0 0
41 1 4.881182 6.496173 13.178053 0 0 0
42 1 3.154614 7.472123 0.087149 0 0 0
43 1 3.328946 9.465987 2.648223 0 0 0
44 1 1.706433 10.359586 5.131497 0 0 0
45 1 3.155653 9.315123 7.836922 0 0 0
46 1 1.538205 10.253048 10.486889 0 0 0
47 1 3.364930 9.340661 13.134637 0 0 0
48 1 1.599001 10.268123 0.076057 0 0 0
49 1 11.330317 0.853110 2.672467 0 0 0
50 1 9.705335 1.844237 5.139578 0 0 0
51 1 11.462041 0.928036 7.783365 0 0 0
52 1 9.848100 1.825899 10.594161 0 0 0
53 1 11.408780 0.870019 13.344745 0 0 0
54 1 9.785746 1.884287 0.110917 0 0 0
55 1 9.757687 3.642348 2.629843 0 0 0
56 1 8.199086 4.740700 5.299141 0 0 0
57 1 9.615311 3.799175 7.901096 0 0 0
58 1 8.160504 4.744525 10.654690 0 0 0
59 1 9.620507 3.813013 13.220201 0 0 0
60 1 8.008905 4.631686 15.723599 0 0 0
61 1 8.135822 6.571774 2.498802 0 0 0
62 1 6.622169 7.444111 5.217854 0 0 0
63 1 8.067232 6.459498 7.925973 0 0 0
64 1 6.431858 7.479549 10.699849 0 0 0
65 1 8.228055 6.477385 13.228124 0 0 0
66 1 6.458748 7.549412 0.001585 0 0 0
67 1 6.433157 9.373511 2.748207 0 0 0
68 1 4.929766 10.244947 5.167625 0 0 0
69 1 6.461606 9.456650 7.975727 0 0 0
70 1 4.906253 10.231897 10.424775 0 0 0
71 1 6.592940 9.357198 13.195007 0 0 0
72 1 4.861176 10.316161 15.767490 0 0 0
73 1 12.920744 1.964951 5.405779 0 0 0
74 1 0.027280 1.844687 10.589249 0 0 0
75 1 0.044168 1.963826 15.709021 0 0 0
76 1 11.376823 4.671512 5.313401 0 0 0
77 1 11.382019 4.625836 10.432698 0 0 0
78 1 11.239383 4.588373 15.783652 0 0 0
79 1 11.439307 6.525536 2.673259 0 0 0
80 1 9.870964 7.533437 5.288841 0 0 0
81 1 11.297191 6.616550 8.040376 0 0 0
82 1 9.836409 7.521962 10.607154 0 0 0
83 1 11.474512 6.547586 13.132260 0 0 0
84 1 9.777172 7.454123 0.033275 0 0 0
85 1 9.625313 9.486462 2.542535 0 0 0
86 1 8.146994 10.278360 5.345250 0 0 0
87 1 9.620247 9.277660 8.052577 0 0 0
88 1 8.012023 10.274873 10.566274 0 0 0
89 1 9.677016 9.384761 13.287861 0 0 0
90 1 8.124780 10.409875 15.728035 0 0 0
91 1 12.968939 7.450636 5.307380 0 0 0
92 1 12.870081 7.401923 10.501942 0 0 0
93 1 12.886189 7.425885 15.799022 0 0 0
94 1 11.247178 10.359699 5.321007 0 0 0
95 1 11.281992 10.214122 10.528403 0 0 0
96 1 11.357077 10.245735 0.110917 0 0 0
97 2 1.649274 0.830182 4.753587 0 0 0
98 2 1.611602 0.838069 9.783992 0 0 0
99 2 1.753328 1.019938 15.227007 0 0 0
100 2 12.867600 3.710074 4.615575 0 0 0
101 2 12.886326 3.765987 9.853552 0 0 0
102 2 12.977642 3.767562 15.055878 0 0 0
103 2 4.756473 0.892722 4.633955 0 0 0
104 2 3.263734 1.816899 2.116931 0 0 0
105 2 4.956007 0.925032 10.061601 0 0 0
106 2 3.268021 1.815324 7.366317 0 0 0
107 2 4.858838 0.881258 15.334914 0 0 0
108 2 3.154744 1.877875 12.699208 0 0 0
109 2 3.286208 3.775887 4.617476 0 0 0
110 2 1.644078 4.780075 1.946911 0 0 0
111 2 3.177217 3.732799 9.837073 0 0 0
112 2 1.609393 4.716287 7.278851 0 0 0
113 2 3.217878 3.834051 15.127340 0 0 0
114 2 1.597832 4.691537 12.410824 0 0 0
115 2 1.554054 6.476710 4.499904 0 0 0
116 2 1.725269 6.457585 10.016284 0 0 0
117 2 1.625761 6.475698 15.187553 0 0 0
118 2 0.025838 9.282947 4.778623 0 0 0
119 2 0.039757 9.366423 10.024048 0 0 0
120 2 12.928885 9.447987 15.136372 0 0 0
121 2 8.233771 0.879930 4.771809 0 0 0
122 2 6.498110 1.889575 2.142600 0 0 0
123 2 8.189473 0.895613 9.768622 0 0 0
124 2 6.376778 1.945488 7.240030 0 0 0
125 2 8.088927 0.942717 15.314790 0 0 0
126 2 6.470829 1.898463 12.421282 0 0 0
127 2 6.452643 3.670136 4.546172 0 0 0
128 2 4.840002 4.635849 1.896047 0 0 0
129 2 6.529936 3.817513 9.816474 0 0 0
130 2 4.974323 4.742837 7.279485 0 0 0
131 2 6.617362 3.764637 15.101037 0 0 0
132 2 4.964451 4.769050 12.490526 0 0 0
133 2 4.826492 6.639050 4.624607 0 0 0
134 2 3.131231 7.562687 1.962915 0 0 0
135 2 4.814280 6.525086 9.866546 0 0 0
136 2 3.324270 7.396297 7.339697 0 0 0
137 2 4.968218 6.514398 15.240317 0 0 0
138 2 3.177997 7.527587 12.415102 0 0 0
139 2 3.368957 9.399836 4.590222 0 0 0
140 2 1.501832 10.393112 2.019007 0 0 0
141 2 3.338040 9.376211 9.752776 0 0 0
142 2 1.732673 10.292536 7.341598 0 0 0
143 2 3.156952 9.446074 15.320336 0 0 0
144 2 1.696040 10.370499 12.519681 0 0 0
145 2 11.419172 0.952235 4.653920 0 0 0
146 2 9.702607 1.920963 1.878618 0 0 0
147 2 11.237175 0.951459 9.923589 0 0 0
148 2 9.756128 1.918825 7.403395 0 0 0
149 2 11.482046 1.028241 15.223521 0 0 0
150 2 9.853557 1.788886 12.499241 0 0 0
151 2 9.622455 3.758675 4.702248 0 0 0
152 2 8.036185 4.670949 1.858811 0 0 0
153 2 9.691695 3.813125 9.920578 0 0 0
154 2 8.188953 4.718875 7.392462 0 0 0
155 2 9.628691 3.677111 15.164102 0 0 0
156 2 8.181419 4.776025 12.399415 0 0 0
157 2 8.024883 6.545449 4.710805 0 0 0
158 2 6.501617 7.557400 1.881470 0 0 0
159 2 8.163882 6.589324 9.752459 0 0 0
160 2 6.557606 7.610725 7.150029 0 0 0
161 2 8.082821 6.493023 15.258539 0 0 0
162 2 6.411593 7.609600 12.396563 0 0 0
163 2 6.375739 9.443599 4.741069 0 0 0
164 2 4.888586 10.369824 1.992387 0 0 0
165 2 6.517595 9.305560 9.909803 0 0 0
166 2 4.754784 10.212772 7.215628 0 0 0
167 2 6.529287 9.463287 15.245546 0 0 0
168 2 4.919633 10.356661 12.644700 0 0 0
169 2 0.041570 1.879562 1.932809 0 0 0
170 2 0.113017 1.818024 7.271404 0 0 0
171 2 0.062354 1.819711 12.659120 0 0 0
172 2 11.376563 4.779850 1.938830 0 0 0
173 2 11.479838 4.783788 7.295647 0 0 0
174 2 11.263286 4.657561 12.478642 0 0 0
175 2 11.305895 6.501011 4.469006 0 0 0
176 2 9.844983 7.489674 2.010926 0 0 0
177 2 11.318755 6.673700 10.062076 0 0 0
178 2 9.863559 7.537487 7.339539 0 0 0
179 2 11.323562 6.567724 15.118784 0 0 0
180 2 9.799646 7.562687 12.416845 0 0 0
181 2 9.670520 9.308485 4.666280 0 0 0
182 2 8.177522 10.387824 1.833617 0 0 0
183 2 9.665454 9.368223 9.870190 0 0 0
184 2 8.077625 10.214460 7.350789 0 0 0
185 2 9.717546 9.414349 15.206725 0 0 0
186 2 8.002540 10.269360 12.697148 0 0 0
187 2 0.111718 7.472686 2.023444 0 0 0
188 2 0.016888 7.574500 7.412902 0 0 0
189 2 12.880214 7.587437 12.569435 0 0 0
190 2 11.287318 10.250010 2.051331 0 0 0
191 2 11.391892 10.332024 7.416388 0 0 0
192 2 11.387865 10.222560 12.443940 0 0 0
