LAMMPS DATA file

192 atoms
0 bonds
0 angles
0 dihedrals
0 impropers

2 atom types
0 bond types
0 angle types

0.0 12.990503 xlo xhi
0.0 11.250148 ylo yhi
0.0 15.845291 zlo zhi

Masses

1 69.723
2 14.0067

Atoms

1 1 1.667201 0.903376 2.516232 0 0 0
2 1 1.615109 0.834030 7.931994 0 0 0
3 1 1.744105 0.866543 13.053826 0 0 0
4 1 12.976383 3.726612 2.784334 0 0 0
5 1 0.044000 3.801875 7.793506 0 0 0
6 1 12.989197 3.845751 13.253476 0 0 0
7 1 4.851563 0.896749 2.791306 0 0 0
8 1 3.313747 1.835799 5.237661 0 0 0
9 1 4.889236 0.989788 7.888578 0 0 0
10 1 3.277114 1.981264 10.670852 0 0 0
11 1 4.841561 0.886467 13.304974 0 0 0
12 1 3.245547 1.868425 15.727402 0 0 0
13 1 3.143832 3.705686 2.788613 0 0 0
14 1 1.514043 4.634161 5.232749 0 0 0
15 1 3.284909 3.659223 7.766569 0 0 0
16 1 1.574839 4.789751 10.686539 0 0 0
17 1 3.306992 3.785112 13.235730 0 0 0
18 1 1.549377 4.734287 15.740712 0 0 0
19 1 1.726178 6.463210 2.579296 0 0 0
20 1 1.715656 6.477385 7.996326 0 0 0
21 1 1.616668 6.518111 13.231293 0 0 0
22 1 12.915782 9.419187 2.570740 0 0 0
23 1 12.910428 9.335373 8.054478 0 0 0
24 1 0.043551 9.431674 13.348707 0 0 0
25 1 8.100358 0.893104 2.747732 0 0 0
26 1 6.468491 1.927713 5.321007 0 0 0
27 1 8.213895 0.912916 8.073651 0 0 0
28 1 6.447187 1.771561 10.509231 0 0 0
29 1 8.204802 1.009937 13.144302 0 0 0
30 1 6.603463 1.904088 15.704109 0 0 0
31 1 6.541628 3.718399 2.525581 0 0 0
32 1 4.754394 4.758250 5.399124 0 0 0
33 1 6.368464 3.693761 7.775601 0 0 0
34 1 4.832987 4.659136 10.621415 0 0 0
35 1 6.480053 3.835288 13.105006 0 0 0
36 1 4.769074 4.627973 0.030106 0 0 0
37 1 4.896380 6.570424 2.683558 0 0 0
38 1 3.314787 7.456373 5.211041 0 0 0
39 1 4.876245 6.612162 8.047506 0 0 0
40 1 3.201899 7.438261 10.436342 0 0 0
41 1 4.825712 6.459273 13.144936 0 0 0
42 1 3.145910 7.519262 0.117255 0 0 0
43 1 3.351160 9.383074 2.716200 0 0 0
44 1 1.602119 10.205572 5.181252 0 0 0
45 1 3.176568 9.388249 7.783207 0 0 0
46 1 1.603028 10.330111 10.666099 0 0 0
47 1 3.292963 9.445174 13.064442 0 0 0
48 1 1.642259 10.223910 0.063381 0 0 0
49 1 11.319275 0.979944 2.754704 0 0 0
50 1 9.613752 1.859199 5.225301 0 0 0
51 1 11.440866 0.998518 7.967329 0 0 0
52 1 9.714428 1.816111 10.438402 0 0 0
53 1 11.291216 0.965015 13.228124 0 0 0
54 1 9.864079 1.878325 0.134685 0 0 0
55 1 9.672989 3.763400 2.503556 0 0 0
56 1 8.203373 4.614586 5.296447 0 0 0
57 1 9.824328 3.851038 7.964635 0 0 0
58 1 8.040732 4.593661 10.515727 0 0 0
59 1 9.868755 3.700624 13.112612 0 0 0
60 1 8.024494 4.777938 15.817878 0 0 0
61 1 8.134913 6.453310 2.628258 0 0 0
62 1 6.582028 7.400573 5.219439 0 0 0
63 1 8.089446 6.613625 8.065253 0 0 0
64 1 6.617362 7.528599 10.669426 0 0 0
65 1 8.064245 6.534986 13.113404 0 0 0
66 1 6.621000 7.389210 0.055459 0 0 0
67 1 6.463815 9.423237 2.517341 0 0 0
68 1 4.761669 10.327974 5.401501 0 0 0
69 1 6.524091 9.444049 7.769421 0 0 0
70 1 4.902226 10.281398 10.444106 0 0 0
71 1 6.398732 9.270685 13.167753 0 0 0
72 1 4.994329 10.400425 0.026937 0 0 0
73 1 12.963743 1.766723 5.362522 0 0 0
74 1 0.050663 1.771561 10.632190 0 0 0
75 1 0.080541 1.777073 15.835625 0 0 0
76 1 11.494907 4.662736 5.340180 0 0 0
77 1 11.292644 4.687487 10.417169 0 0 0
78 1 11.246009 4.685124 15.774779 0 0 0
79 1 11.253673 6.607662 2.576920 0 0 0
80 1 9.816404 7.428248 5.125476 0 0 0
81 1 11.438528 6.542974 7.911078 0 0 0
82 1 9.677145 7.471448 10.665940 0 0 0
83 1 11.465548 6.504611 13.261241 0 0 0
84 1 9.682731 7.486749 15.711873 0 0 0
85 1 9.690656 9.479487 2.608927 0 0 0
86 1 8.228704 10.341136 5.340338 0 0 0
87 1 9.757037 9.348536 7.902522 0 0 0
88 1 8.224937 10.352949 10.436818 0 0 0
89 1 9.709102 9.453387 13.127506 0 0 0
90 1 8.102956 10.271723 15.721222 0 0 0
91 1 0.036373 7.544124 5.412593 0 0 0
92 1 0.072747 7.459636 10.591943 0 0 0
93 1 12.897231 7.388872 15.814709 0 0 0
94 1 11.469185 10.235272 5.216270 0 0 0
95 1 11.486463 10.417862 10.670536 0 0 0
96 1 11.468406 10.276335 0.114086 0 0 0
97 2 1.563927 1.002737 4.645839 0 0 0
98 2 1.510016 0.962000 9.990773 0 0 0
99 2 1.742676 0.840589 15.101037 0 0 0
100 2 0.064321 3.788487 4.648216 0 0 0
101 2 12.899097 3.855651 10.064770 0 0 0
102 2 12.939431 3.649661 15.336815 0 0 0
103 2 4.852862 0.873529 4.567405 0 0 0
104 2 3.360513 1.981376 1.856117 0 0 0
105 2 4.992380 0.962821 10.004241 0 0 0
106 2 3.361553 1.780111 7.410525 0 0 0
107 2 4.804408 0.873889 15.066811 0 0 0
108 2 3.257758 1.819599 12.655950 0 0 0
109 2 3.143312 3.816050 4.646473 0 0 0
110 2 1.494038 4.695024 1.894938 0 0 0
111 2 3.270099 3.741462 9.968589 0 0 0
112 2 1.557691 4.786038 7.327179 0 0 0
113 2 3.359474 3.731562 15.290072 0 0 0
114 2 1.608224 4.746663 12.394028 0 0 0
115 2 1.752419 6.466923 4.522246 0 0 0
116 2 1.627450 6.625325 9.864010 0 0 0
117 2 1.570162 6.484248 15.318910 0 0 0
118 2 12.931477 9.339536 4.484376 0 0 0
119 2 12.913763 9.380486 9.825506 0 0 0
120 2 0.023912 9.445512 15.154594 0 0 0
121 2 8.192591 0.985884 4.785436 0 0 0
122 2 6.370673 1.910838 1.996507 0 0 0
123 2 8.237798 0.981463 9.898553 0 0 0
124 2 6.442380 1.857174 7.234960 0 0 0
125 2 8.016050 0.932604 15.278029 0 0 0
126 2 6.488237 1.834337 12.513977 0 0 0
127 2 6.548902 3.839451 4.707794 0 0 0
128 2 4.776738 4.601423 1.857860 0 0 0
129 2 6.436145 3.648761 9.802689 0 0 0
130 2 4.993420 4.615036 7.255559 0 0 0
131 2 6.553319 3.748212 15.210053 0 0 0
132 2 4.937820 4.792901 12.515244 0 0 0
133 2 4.910930 6.461748 4.751527 0 0 0
134 2 3.348562 7.610838 1.949288 0 0 0
135 2 4.830649 6.609462 9.945138 0 0 0
136 2 3.338559 7.599813 7.421300 0 0 0
137 2 4.976012 6.457135 15.059681 0 0 0
138 2 3.211382 7.412273 12.517780 0 0 0
139 2 3.309461 9.459125 4.571842 0 0 0
140 2 1.728776 10.345974 1.959904 0 0 0
141 2 3.333233 9.485225 9.870507 0 0 0
142 2 1.620046 10.338886 7.238763 0 0 0
143 2 3.279972 9.399161 15.287219 0 0 0
144 2 1.647456 10.261485 12.538378 0 0 0
145 2 11.349153 0.905839 4.757390 0 0 0
146 2 9.703126 1.883612 1.892878 0 0 0
147 2 11.366171 0.861784 9.915824 0 0 0
148 2 9.798607 1.829387 7.297232 0 0 0
149 2 11.456065 1.027870 15.279138 0 0 0
150 2 9.669741 1.905100 12.617130 0 0 0
151 2 9.613882 3.773300 4.767214 0 0 0
152 2 8.011763 4.625836 2.119783 0 0 0
153 2 9.665194 3.705799 9.965579 0 0 0
154 2 8.045019 4.678037 7.273305 0 0 0
155 2 9.723781 3.747874 15.091530 0 0 0
156 2 8.016440 4.786713 12.432057 0 0 0
157 2 8.076066 6.631175 4.513214 0 0 0
158 2 6.506683 7.583162 2.126280 0 0 0
159 2 8.108152 6.509223 9.808710 0 0 0
160 2 6.546694 7.415535 7.157476 0 0 0
161 2 8.171546 6.540386 15.111020 0 0 0
162 2 6.441861 7.507449 12.442990 0 0 0
163 2 6.370283 9.262922 4.627142 0 0 0
164 2 4.979909 10.412912 1.936453 0 0 0
165 2 6.506294 9.341223 9.909803 0 0 0
166 2 4.764787 10.262498 7.229414 0 0 0
167 2 6.569168 9.295435 15.156496 0 0 0
168 2 4.982637 10.256085 12.623151 0 0 0
169 2 12.940230 1.868875 2.036437 0 0 0
170 2 0.048065 1.860887 7.116912 0 0 0
171 2 12.967250 1.951563 12.681620 0 0 0
172 2 11.387475 4.764438 1.940731 0 0 0
173 2 11.458014 4.775575 7.308482 0 0 0
174 2 11.340450 4.631574 12.706972 0 0 0
175 2 11.402414 6.619812 4.747408 0 0 0
176 2 9.733264 7.449398 1.977968 0 0 0
177 2 11.244580 6.501461 9.921529 0 0 0
178 2 9.716767 7.557625 7.373131 0 0 0
179 2 11.382279 6.577399 15.221778 0 0 0
180 2 9.760025 7.495074 12.499241 0 0 0
181 2 9.823808 9.442137 4.558056 0 0 0
182 2 8.044239 10.256535 1.895414 0 0 0
183 2 9.756777 9.380936 9.846897 0 0 0
184 2 8.205841 10.218060 7.236544 0 0 0
185 2 9.846801 9.459462 15.103414 0 0 0
186 2 8.050085 10.410100 12.597323 0 0 0
187 2 12.933475 7.414073 2.052282 0 0 0
188 2 0.019486 7.416323 7.161754 0 0 0
189 2 0.057158 7.393822 12.475473 0 0 0
190 2 11.486593 10.205684 2.079853 0 0 0
191 2 11.440476 10.221997 7.335894 0 0 0
192 2 11.248866 10.214122 12.641373 0 0 0
