LAMMPS DATA file

192 atoms
0 bonds
0 angles
0 dihedrals
0 impropers

2 atom types
0 bond types
0 angle types

0.0 12.990503 xlo xhi
0.0 11.250148 ylo yhi
0.0 15.845291 zlo zhi

Masses

1 69.723
2 14.0067

Atoms

1 1 1.534178 1.048683 2.619702 0 0 0
2 1 1.635504 0.884037 8.038316 0 0 0
3 1 1.520668 1.010308 13.175834 0 0 0
4 1 0.109211 3.756312 2.752961 0 0 0
5 1 12.952263 3.727624 7.948156 0 0 0
6 1 0.106918 3.667436 13.053826 0 0 0
7 1 4.845718 0.959041 2.768331 0 0 0
8 1 3.194105 1.885187 5.365532 0 0 0
9 1 4.826621 0.846439 7.898719 0 0 0
10 1 3.125255 1.914438 10.434916 0 0 0
11 1 4.793366 0.944292 13.239216 0 0 0
12 1 3.214760 1.899025 0.104579 0 0 0
13 1 3.300107 3.725937 2.658206 0 0 0
14 1 1.558860 4.738675 5.226569 0 0 0
15 1 3.138116 3.705574 7.853877 0 0 0
16 1 1.499884 4.614698 10.672437 0 0 0
17 1 3.288156 3.830225 13.126397 0 0 0
18 1 1.726698 4.622011 0.141023 0 0 0
19 1 1.601599 6.501686 2.736323 0 0 0
20 1 1.587569 6.562886 7.995692 0 0 0
21 1 1.710070 6.538811 13.071097 0 0 0
22 1 12.929552 9.440787 2.773877 0 0 0
23 1 0.017736 9.473637 7.947998 0 0 0
24 1 0.126777 9.434149 13.099302 0 0 0
25 1 8.123481 0.969043 2.752327 0 0 0
26 1 6.521233 1.987451 5.158751 0 0 0
27 1 8.065414 0.932311 7.799844 0 0 0
28 1 6.424583 1.803286 10.612542 0 0 0
29 1 8.073858 1.002894 13.213546 0 0 0
30 1 6.425233 1.917025 15.696979 0 0 0
31 1 6.514088 3.861163 2.591973 0 0 0
32 1 4.886638 4.783676 5.200107 0 0 0
33 1 6.581638 3.676998 8.037524 0 0 0
34 1 4.814151 4.766238 10.655166 0 0 0
35 1 6.414451 3.857676 13.120851 0 0 0
36 1 4.943796 4.757463 15.839111 0 0 0
37 1 4.979390 6.472773 2.520035 0 0 0
38 1 3.340768 7.391797 5.348578 0 0 0
39 1 4.953669 6.476260 7.913613 0 0 0
40 1 3.208005 7.561675 10.490058 0 0 0
41 1 4.955747 6.488973 13.314164 0 0 0
42 1 3.358305 7.430610 15.697296 0 0 0
43 1 3.260227 9.264722 2.739492 0 0 0
44 1 1.729945 10.358799 5.194879 0 0 0
45 1 3.270749 9.473862 8.042436 0 0 0
46 1 1.651353 10.378374 10.664514 0 0 0
47 1 3.263214 9.262810 13.120059 0 0 0
48 1 1.606146 10.297036 0.114086 0 0 0
49 1 11.254322 0.901486 2.533028 0 0 0
50 1 9.676886 1.926250 5.209139 0 0 0
51 1 11.298490 0.856429 7.828683 0 0 0
52 1 9.825367 1.847612 10.610482 0 0 0
53 1 11.479968 0.920971 13.232244 0 0 0
54 1 9.864858 1.844574 0.045951 0 0 0
55 1 9.694813 3.836863 2.570581 0 0 0
56 1 8.065933 4.779175 5.274105 0 0 0
57 1 9.666753 3.643361 7.812679 0 0 0
58 1 8.067752 4.791438 10.647877 0 0 0
59 1 9.787954 3.826738 13.173775 0 0 0
60 1 8.171936 4.683324 0.096656 0 0 0
61 1 8.102826 6.643550 2.479788 0 0 0
62 1 6.624117 7.449511 5.128487 0 0 0
63 1 8.028651 6.558049 8.040376 0 0 0
64 1 6.439003 7.564037 10.453614 0 0 0
65 1 8.179211 6.505623 13.066344 0 0 0
66 1 6.586965 7.542099 0.139439 0 0 0
67 1 6.621259 9.382961 2.764052 0 0 0
68 1 4.865333 10.400312 5.125318 0 0 0
69 1 6.398732 9.429312 7.882557 0 0 0
70 1 4.843769 10.335511 10.407187 0 0 0
71 1 6.466023 9.275410 13.259022 0 0 0
72 1 4.876765 10.217272 15.810114 0 0 0
73 1 12.972317 1.910838 5.187114 0 0 0
74 1 12.881643 1.867750 10.630447 0 0 0
75 1 0.029878 1.965176 15.761469 0 0 0
76 1 11.293944 4.628086 5.374564 0 0 0
77 1 11.419302 4.772763 10.624901 0 0 0
78 1 11.408520 4.673987 0.014261 0 0 0
79 1 11.494127 6.665488 2.583733 0 0 0
80 1 9.653373 7.481461 5.293595 0 0 0
81 1 11.244580 6.645125 8.042119 0 0 0
82 1 9.742098 7.434660 10.628229 0 0 0
83 1 11.418522 6.553774 13.094548 0 0 0
84 1 9.819391 7.587550 15.726451 0 0 0
85 1 9.857064 9.262697 2.616057 0 0 0
86 1 7.992017 10.252935 5.341923 0 0 0
87 1 9.793281 9.322323 7.862275 0 0 0
88 1 8.013322 10.209510 10.640271 0 0 0
89 1 9.697411 9.380036 13.342210 0 0 0
90 1 8.162972 10.306598 0.041198 0 0 0
91 1 0.042869 7.439386 5.372980 0 0 0
92 1 0.001299 7.485286 10.624267 0 0 0
93 1 0.014290 7.445011 15.705218 0 0 0
94 1 11.389813 10.351824 5.304211 0 0 0
95 1 11.375394 10.306486 10.502259 0 0 0
96 1 11.348763 10.372187 0.152115 0 0 0
97 2 1.562758 1.003232 4.511154 0 0 0
98 2 1.503131 0.927147 9.928818 0 0 0
99 2 1.553924 0.857576 15.246655 0 0 0
100 2 12.952590 3.752374 4.688780 0 0 0
101 2 0.024760 3.751474 9.996318 0 0 0
102 2 0.048119 3.709399 15.295776 0 0 0
103 2 4.913268 0.957106 4.474552 0 0 0
104 2 3.335182 1.788211 2.093955 0 0 0
105 2 4.829220 0.921635 10.001864 0 0 0
106 2 3.154484 1.899363 7.404346 0 0 0
107 2 4.906903 0.835762 15.253469 0 0 0
108 2 3.184492 1.917925 12.506371 0 0 0
109 2 3.258538 3.687574 4.755489 0 0 0
110 2 1.590947 4.592761 1.837420 0 0 0
111 2 3.280622 3.848338 9.851651 0 0 0
112 2 1.687466 4.640124 7.148920 0 0 0
113 2 3.251263 3.724699 15.342203 0 0 0
114 2 1.569772 4.708300 12.572287 0 0 0
115 2 1.653951 6.576274 4.557264 0 0 0
116 2 1.533399 6.614975 9.762917 0 0 0
117 2 1.702146 6.541511 15.295142 0 0 0
118 2 0.122381 9.357648 4.485643 0 0 0
119 2 0.074577 9.404336 9.911546 0 0 0
120 2 0.017587 9.332223 15.268839 0 0 0
121 2 8.076586 1.023763 4.574377 0 0 0
122 2 6.572155 1.943576 1.843600 0 0 0
123 2 8.093733 1.042180 9.881599 0 0 0
124 2 6.451214 1.905663 7.381370 0 0 0
125 2 8.194020 0.946149 15.267096 0 0 0
126 2 6.557476 1.862575 12.660704 0 0 0
127 2 6.493823 3.850926 4.721421 0 0 0
128 2 4.776088 4.628536 1.868160 0 0 0
129 2 6.504085 3.650336 9.898870 0 0 0
130 2 4.996797 4.728550 7.385490 0 0 0
131 2 6.494212 3.702311 15.090104 0 0 0
132 2 4.991211 4.745200 12.692395 0 0 0
133 2 4.915996 6.491898 4.560433 0 0 0
134 2 3.132790 7.397535 1.916329 0 0 0
135 2 4.785831 6.602487 10.036249 0 0 0
136 2 3.209174 7.410135 7.360771 0 0 0
137 2 4.863255 6.604737 15.248557 0 0 0
138 2 3.227231 7.535912 12.591936 0 0 0
139 2 3.254121 9.305673 4.630786 0 0 0
140 2 1.688376 10.294561 2.061472 0 0 0
141 2 3.296080 9.477687 9.847848 0 0 0
142 2 1.582893 10.287248 7.117705 0 0 0
143 2 3.282310 9.389824 15.147939 0 0 0
144 2 1.603418 10.304123 12.490843 0 0 0
145 2 11.295372 0.851096 4.510996 0 0 0
146 2 9.858883 1.873375 2.064800 0 0 0
147 2 11.317586 0.826740 9.945455 0 0 0
148 2 9.705854 1.908475 7.377567 0 0 0
149 2 11.263156 0.957376 15.216708 0 0 0
150 2 9.748593 1.864825 12.697624 0 0 0
151 2 9.660388 3.763400 4.667072 0 0 0
152 2 7.996954 4.719550 2.093321 0 0 0
153 2 9.715597 3.735949 9.777178 0 0 0
154 2 8.140239 4.771188 7.175064 0 0 0
155 2 9.637524 3.679811 15.243803 0 0 0
156 2 8.179470 4.717075 12.539646 0 0 0
157 2 8.070870 6.594387 4.646631 0 0 0
158 2 6.537731 7.415648 2.041349 0 0 0
159 2 8.165960 6.659413 10.012956 0 0 0
160 2 6.411593 7.601163 7.172688 0 0 0
161 2 8.045668 6.451960 15.127340 0 0 0
162 2 6.436664 7.519599 12.516829 0 0 0
163 2 6.413801 9.351011 4.517492 0 0 0
164 2 4.957826 10.233810 2.043092 0 0 0
165 2 6.560204 9.265960 9.795400 0 0 0
166 2 4.749458 10.382087 7.124360 0 0 0
167 2 6.538380 9.365186 15.286586 0 0 0
168 2 4.834676 10.205797 12.460420 0 0 0
169 2 0.054560 1.886087 2.103304 0 0 0
170 2 0.062354 1.785736 7.417339 0 0 0
171 2 0.062354 1.765598 12.606513 0 0 0
172 2 11.362923 4.582860 1.863882 0 0 0
173 2 11.256661 4.711787 7.183462 0 0 0
174 2 11.273678 4.694349 12.686057 0 0 0
175 2 11.397088 6.605300 4.542845 0 0 0
176 2 9.666753 7.395960 2.037863 0 0 0
177 2 11.368639 6.559399 10.023414 0 0 0
178 2 9.863819 7.558525 7.187582 0 0 0
179 2 11.412547 6.620937 15.217817 0 0 0
180 2 9.826666 7.596100 12.593203 0 0 0
181 2 9.617909 9.304098 4.477087 0 0 0
182 2 8.232082 10.309186 2.079536 0 0 0
183 2 9.731706 9.373849 9.885243 0 0 0
184 2 8.220910 10.396824 7.310066 0 0 0
185 2 9.688967 9.328285 15.109911 0 0 0
186 2 8.172196 10.374437 12.651989 0 0 0
187 2 0.079242 7.444673 2.081437 0 0 0
188 2 0.033775 7.439723 7.230206 0 0 0
189 2 12.978292 7.500249 12.562463 0 0 0
190 2 11.326420 10.265760 2.050698 0 0 0
191 2 11.479448 10.333824 7.297390 0 0 0
192 2 11.428655 10.283986 12.534892 0 0 0
