LAMMPS DATA file

64 atoms

1 atom types

0.000000 10.862000 xlo xhi
0.000000 10.862000 ylo yhi
0.000000 10.862000 zlo zhi

Masses

1 28.0855

Atoms

1 1 6.789360 1.343040 1.366280
2 1 9.461960 4.085490 1.364640
3 1 9.533550 1.363540 4.048350
4 1 1.366250 1.348780 1.375850
5 1 4.021320 4.045440 1.351740
6 1 6.814430 6.770860 1.333740
7 1 9.549100 9.495210 1.333920
8 1 4.091610 1.333340 4.106380
9 1 6.807380 4.058820 4.065540
10 1 9.513060 6.774320 4.090470
11 1 6.763930 1.391550 6.816860
12 1 9.517230 4.111640 6.838660
13 1 9.489630 1.359030 9.510820
14 1 1.307590 6.763910 1.380690
15 1 4.090960 9.484130 1.340320
16 1 1.378710 4.087160 4.025470
17 1 4.049100 6.780500 4.107250
18 1 6.752150 9.508850 4.028180
19 1 1.418680 1.368190 6.745330
20 1 4.125590 4.094180 6.772240
21 1 6.816670 6.737880 6.798340
22 1 9.502040 9.449790 6.789100
23 1 4.105620 1.374220 9.454750
24 1 6.760450 4.059840 9.535620
25 1 9.503170 6.821130 9.496890
26 1 1.354070 9.529100 4.058050
27 1 1.337880 6.780090 6.800280
28 1 4.036920 9.558280 6.781420
29 1 1.340850 4.082940 9.523010
30 1 4.085700 6.796350 9.484770
31 1 6.787030 9.502480 9.511780
32 1 1.337700 9.515110 9.515260
33 1 5.445170 0.013301 -0.011722
34 1 8.125960 2.720520 0.026228
35 1 8.162160 -0.022878 2.696790
36 1 0.005350 0.015932 -0.034105
37 1 2.701340 2.720910 -0.027674
38 1 5.383840 5.404230 0.014027
39 1 8.152080 8.183100 0.001337
40 1 2.762400 -0.031526 2.733790
41 1 5.431910 2.691400 2.703690
42 1 8.146330 5.431270 2.729250
43 1 5.436950 0.022034 5.438680
44 1 8.189900 2.726640 5.451720
45 1 8.149850 -0.010446 8.141170
46 1 -0.051319 5.429860 -0.004572
47 1 2.667510 8.140230 0.065859
48 1 0.009317 2.730800 2.710650
49 1 2.739210 5.459200 2.708430
50 1 5.396830 8.085930 2.696210
51 1 -0.017384 0.005955 5.443010
52 1 2.735440 2.758600 5.417970
53 1 5.425990 5.438240 5.410630
54 1 8.121320 8.163280 5.419710
55 1 2.708080 0.029757 8.166880
56 1 5.430900 2.721720 8.164790
57 1 8.152470 5.426540 8.202570
58 1 0.009604 8.142380 2.725030
59 1 0.011800 5.417150 5.428550
60 1 2.669200 8.155530 5.427060
61 1 0.032666 2.684180 8.144010
62 1 2.748970 5.430170 8.143230
63 1 5.449770 8.140340 8.108320
64 1 -0.007301 8.136470 8.142470
