LAMMPS DATA file

64 atoms

1 atom types

0.000000 10.862000 xlo xhi
0.000000 10.862000 ylo yhi
0.000000 10.862000 zlo zhi

Masses

1 28.0855

Atoms

1 1 6.795680 1.435340 1.373540
2 1 9.536040 4.123020 1.360220
3 1 9.503660 1.348070 4.083530
4 1 1.305920 1.376870 1.340910
5 1 4.128980 4.072870 1.325870
6 1 6.786770 6.791150 1.374560
7 1 9.469110 9.476100 1.350390
8 1 4.031020 1.375020 4.040390
9 1 6.762460 4.068480 4.090870
10 1 9.508000 6.805030 4.042820
11 1 6.755980 1.300200 6.784030
12 1 9.477590 4.060090 6.689480
13 1 9.522080 1.346980 9.502480
14 1 1.414400 6.840980 1.339180
15 1 4.068570 9.551150 1.397720
16 1 1.341940 4.027220 4.118430
17 1 4.110790 6.781130 4.070660
18 1 6.840390 9.534140 4.094380
19 1 1.335070 1.317060 6.838530
20 1 4.011280 4.044750 6.807210
21 1 6.759350 6.847970 6.795070
22 1 9.491310 9.513570 6.813710
23 1 4.064710 1.320060 9.524400
24 1 6.830730 4.090820 9.425490
25 1 9.527550 6.714530 9.495140
26 1 1.367160 9.480610 4.050260
27 1 1.374550 6.805570 6.754480
28 1 4.067090 9.477660 6.798090
29 1 1.349200 4.069650 9.517120
30 1 4.113040 6.757820 9.464910
31 1 6.789900 9.504750 9.520270
32 1 1.380910 9.493050 9.549750
33 1 5.465230 0.011397 0.044536
34 1 8.174530 2.761120 -0.036692
35 1 8.120570 0.023074 2.728990
36 1 -0.025604 -0.011774 -0.014911
37 1 2.689820 2.762440 0.026532
38 1 5.462770 5.439770 -0.041282
39 1 8.116790 8.103330 0.010061
40 1 2.645980 0.027225 2.696620
41 1 5.447980 2.751350 2.713030
42 1 8.111970 5.434240 2.747090
43 1 5.389490 -0.015548 5.403540
44 1 8.090820 2.683940 5.419780
45 1 8.156620 0.022047 8.176330
46 1 0.082125 5.439030 -0.000640
47 1 2.807230 8.160940 0.011485
48 1 0.003320 2.701770 2.749870
49 1 2.746590 5.395960 2.716390
50 1 5.478690 8.192070 2.728130
51 1 -0.011923 -0.017994 5.441230
52 1 2.645690 2.672670 5.474240
53 1 5.378800 5.424360 5.467940
54 1 8.194450 8.191390 5.443870
55 1 2.726030 -0.039581 8.154380
56 1 5.421730 2.660400 8.150380
57 1 8.184500 5.433970 8.040610
58 1 0.010509 8.138340 2.683220
59 1 -0.017280 5.458770 5.408430
60 1 2.756550 8.131910 5.416540
61 1 -0.057442 2.721070 8.151840
62 1 2.705840 5.448490 8.151740
63 1 5.412080 8.146280 8.189010
64 1 0.000311 8.131850 8.149820
