LAMMPS DATA file

192 atoms
0 bonds
0 angles
0 dihedrals
0 impropers

2 atom types
0 bond types
0 angle types

0.0 12.990503 xlo xhi
0.0 11.250148 ylo yhi
0.0 15.845291 zlo zhi

Masses

1 69.723
2 14.0067

Atoms

1 1 1.597832 0.848464 2.780056 0 0 0
2 1 1.539375 0.939579 7.892698 0 0 0
3 1 1.658757 0.948050 13.081397 0 0 0
4 1 12.989253 3.750124 2.612413 0 0 0
5 1 0.026955 3.657311 7.826940 0 0 0
6 1 12.954743 3.689374 13.084882 0 0 0
7 1 4.928077 0.888919 2.656780 0 0 0
8 1 3.144091 1.975301 5.233383 0 0 0
9 1 4.906513 1.042349 7.928033 0 0 0
10 1 3.126165 1.837712 10.426201 0 0 0
11 1 4.946264 0.915661 13.081713 0 0 0
12 1 3.301796 1.911400 15.769709 0 0 0
13 1 3.245937 3.804463 2.625565 0 0 0
14 1 1.724489 4.655874 5.358402 0 0 0
15 1 3.136947 3.639985 7.944195 0 0 0
16 1 1.716565 4.705487 10.701751 0 0 0
17 1 3.205537 3.708836 13.274551 0 0 0
18 1 1.532620 4.799088 15.767649 0 0 0
19 1 1.533009 6.618125 2.529701 0 0 0
20 1 1.701366 6.621950 7.786217 0 0 0
21 1 1.749301 6.601587 13.131151 0 0 0
22 1 12.930601 9.376549 2.658206 0 0 0
23 1 12.910427 9.395899 7.895867 0 0 0
24 1 12.893625 9.298473 13.109284 0 0 0
25 1 8.065544 1.000644 2.579613 0 0 0
26 1 6.513698 1.902963 5.224668 0 0 0
27 1 8.248190 0.985727 7.950691 0 0 0
28 1 6.457449 1.806099 10.469459 0 0 0
29 1 8.005008 1.001252 13.095657 0 0 0
30 1 6.417828 1.777636 0.085565 0 0 0
31 1 6.420946 3.688699 2.708119 0 0 0
32 1 4.926648 4.626623 5.244474 0 0 0
33 1 6.517985 3.748887 8.061925 0 0 0
34 1 4.973284 4.737887 10.428420 0 0 0
35 1 6.447317 3.678236 13.073632 0 0 0
36 1 4.814410 4.798301 15.820572 0 0 0
37 1 4.794275 6.616887 2.786236 0 0 0
38 1 3.248795 7.603188 5.410691 0 0 0
39 1 4.875206 6.529361 7.960040 0 0 0
40 1 3.189039 7.464023 10.652789 0 0 0
41 1 4.803368 6.492911 13.317174 0 0 0
42 1 3.120449 7.570450 15.828653 0 0 0
43 1 3.220735 9.356073 2.573592 0 0 0
44 1 1.618227 10.268685 5.213734 0 0 0
45 1 3.333363 9.374636 7.954336 0 0 0
46 1 1.669020 10.244610 10.530622 0 0 0
47 1 3.272308 9.349548 13.233828 0 0 0
48 1 1.498065 10.316386 0.007923 0 0 0
49 1 11.480357 1.036375 2.609244 0 0 0
50 1 9.689097 1.763911 5.228946 0 0 0
51 1 11.367080 0.844121 7.814580 0 0 0
52 1 9.779900 1.971588 10.664514 0 0 0
53 1 11.324991 0.831105 13.113404 0 0 0
54 1 9.779900 1.884962 15.770342 0 0 0
55 1 9.707543 3.771725 2.740760 0 0 0
56 1 8.175573 4.604798 5.188699 0 0 0
57 1 9.669351 3.695449 8.040693 0 0 0
58 1 8.180120 4.689849 10.546784 0 0 0
59 1 9.620507 3.733137 13.123387 0 0 0
60 1 8.084640 4.613123 0.068135 0 0 0
61 1 8.071000 6.597762 2.687044 0 0 0
62 1 6.502007 7.515999 5.363631 0 0 0
63 1 8.232731 6.666838 7.763083 0 0 0
64 1 6.375089 7.602400 10.517945 0 0 0
65 1 8.141018 6.579649 13.171239 0 0 0
66 1 6.503046 7.470998 0.101410 0 0 0
67 1 6.515517 9.289360 2.704474 0 0 0
68 1 4.764267 10.260360 5.149403 0 0 0
69 1 6.468621 9.408949 8.057806 0 0 0
70 1 4.806486 10.270035 10.593844 0 0 0
71 1 6.547733 9.327385 13.099777 0 0 0
72 1 4.878843 10.262835 15.823583 0 0 0
73 1 12.870861 1.973501 5.155265 0 0 0
74 1 0.006495 1.938626 10.502734 0 0 0
75 1 0.031177 1.779548 15.693810 0 0 0
76 1 11.256141 4.766463 5.374564 0 0 0
77 1 11.319275 4.737662 10.668317 0 0 0
78 1 11.252764 4.724387 0.096656 0 0 0
79 1 11.263935 6.471198 2.666287 0 0 0
80 1 9.780420 7.403610 5.420991 0 0 0
81 1 11.266274 6.451060 7.958614 0 0 0
82 1 9.834331 7.487986 10.676557 0 0 0
83 1 11.449570 6.489986 13.076484 0 0 0
84 1 9.730796 7.597450 0.041198 0 0 0
85 1 9.620897 9.486462 2.658047 0 0 0
86 1 8.201035 10.271160 5.153522 0 0 0
87 1 9.628171 9.460362 7.782890 0 0 0
88 1 8.120364 10.238647 10.428420 0 0 0
89 1 9.634407 9.319848 13.227807 0 0 0
90 1 8.061517 10.252598 15.746574 0 0 0
91 1 12.942958 7.599250 5.234175 0 0 0
92 1 12.869951 7.453448 10.668793 0 0 0
93 1 12.983618 7.502949 15.749268 0 0 0
94 1 11.476720 10.237410 5.208505 0 0 0
95 1 11.237825 10.298273 10.521431 0 0 0
96 1 11.494517 10.259348 15.746574 0 0 0
97 2 1.518590 0.856271 4.763094 0 0 0
98 2 1.704224 1.020962 10.023572 0 0 0
99 2 1.552235 0.979674 15.127182 0 0 0
100 2 0.069903 3.824150 4.719837 0 0 0
101 2 0.028645 3.669798 10.042428 0 0 0
102 2 12.970537 3.666536 15.055403 0 0 0
103 2 4.889625 0.856080 4.506876 0 0 0
104 2 3.216449 1.986439 1.938830 0 0 0
105 2 4.977311 0.930669 9.834063 0 0 0
106 2 3.183842 1.798449 7.286932 0 0 0
107 2 4.791937 0.847170 15.127182 0 0 0
108 2 3.177867 1.898800 12.542815 0 0 0
109 2 3.359084 3.734712 4.662318 0 0 0
110 2 1.513653 4.580723 1.870061 0 0 0
111 2 3.156173 3.744724 9.880489 0 0 0
112 2 1.696430 4.707625 7.178867 0 0 0
113 2 3.348562 3.843951 15.236356 0 0 0
114 2 1.594844 4.787163 12.585122 0 0 0
115 2 1.713967 6.490098 4.757865 0 0 0
116 2 1.536127 6.479635 9.837866 0 0 0
117 2 1.583932 6.469960 15.092956 0 0 0
118 2 12.945346 9.436174 4.756122 0 0 0
119 2 12.951960 9.349998 9.800629 0 0 0
120 2 0.090140 9.310510 15.032269 0 0 0
121 2 8.238967 1.044644 4.719837 0 0 0
122 2 6.413411 1.796086 1.909674 0 0 0
123 2 8.149202 1.037500 9.894116 0 0 0
124 2 6.438613 1.765148 7.142265 0 0 0
125 2 8.214675 0.857891 15.254261 0 0 0
126 2 6.533444 1.809361 12.512709 0 0 0
127 2 6.571636 3.811438 4.716351 0 0 0
128 2 4.874037 4.632924 2.017739 0 0 0
129 2 6.512009 3.717274 9.801421 0 0 0
130 2 4.877544 4.609861 7.396265 0 0 0
131 2 6.547344 3.847663 15.198803 0 0 0
132 2 4.812852 4.626961 12.489892 0 0 0
133 2 4.836494 6.673813 4.517017 0 0 0
134 2 3.334013 7.449173 2.116931 0 0 0
135 2 4.864034 6.672013 9.777970 0 0 0
136 2 3.274516 7.396185 7.202635 0 0 0
137 2 4.867671 6.488073 15.225106 0 0 0
138 2 3.248795 7.564375 12.435859 0 0 0
139 2 3.207225 9.295322 4.623339 0 0 0
140 2 1.616019 10.389287 1.996507 0 0 0
141 2 3.330116 9.432349 9.762759 0 0 0
142 2 1.521058 10.265423 7.282020 0 0 0
143 2 3.149288 9.398936 15.241268 0 0 0
144 2 1.587569 10.260135 12.672905 0 0 0
145 2 11.334214 0.976749 4.571208 0 0 0
146 2 9.823159 1.782586 1.935661 0 0 0
147 2 11.366950 0.854663 10.056372 0 0 0
148 2 9.719105 1.981039 7.311334 0 0 0
149 2 11.356428 0.881607 15.088519 0 0 0
150 2 9.766001 1.798449 12.518572 0 0 0
151 2 9.778731 3.795238 4.610504 0 0 0
152 2 8.060607 4.590173 1.992228 0 0 0
153 2 9.757427 3.819538 9.943078 0 0 0
154 2 8.121013 4.697049 7.253182 0 0 0
155 2 9.683511 3.824150 15.182007 0 0 0
156 2 8.156347 4.709312 12.434275 0 0 0
157 2 8.053722 6.524073 4.485960 0 0 0
158 2 6.552540 7.565725 2.137688 0 0 0
159 2 8.014881 6.607437 9.793340 0 0 0
160 2 6.447317 7.480449 7.117546 0 0 0
161 2 8.149982 6.562774 15.141443 0 0 0
162 2 6.367425 7.542437 12.502093 0 0 0
163 2 6.620480 9.446299 4.606860 0 0 0
164 2 4.890275 10.418650 2.124061 0 0 0
165 2 6.505124 9.469137 9.991565 0 0 0
166 2 4.995758 10.294448 7.167934 0 0 0
167 2 6.595928 9.481737 15.302748 0 0 0
168 2 4.754005 10.245735 12.654366 0 0 0
169 2 12.944647 1.962363 1.869586 0 0 0
170 2 0.118214 1.814536 7.126578 0 0 0
171 2 0.024682 1.966301 12.653891 0 0 0
172 2 11.476980 4.667574 2.005855 0 0 0
173 2 11.408650 4.610648 7.382796 0 0 0
174 2 11.342528 4.755550 12.449328 0 0 0
175 2 11.493348 6.643550 4.729661 0 0 0
176 2 9.718325 7.403048 2.021225 0 0 0
177 2 11.494257 6.548374 9.800629 0 0 0
178 2 9.843424 7.424423 7.109940 0 0 0
179 2 11.461391 6.669200 15.260758 0 0 0
180 2 9.800166 7.511386 12.581953 0 0 0
181 2 9.640512 9.417612 4.730136 0 0 0
182 2 8.193890 10.222672 2.117882 0 0 0
183 2 9.707024 9.335711 10.053520 0 0 0
184 2 8.012802 10.369712 7.228463 0 0 0
185 2 9.635966 9.482975 15.246655 0 0 0
186 2 8.204542 10.416737 12.591302 0 0 0
187 2 12.868003 7.499124 1.885906 0 0 0
188 2 0.029878 7.472798 7.310066 0 0 0
189 2 0.089634 7.556612 12.510174 0 0 0
190 2 11.415535 10.211985 2.082863 0 0 0
191 2 11.425148 10.208160 7.268393 0 0 0
192 2 11.477889 10.255973 12.683204 0 0 0
