LAMMPS DATA file

192 atoms
0 bonds
0 angles
0 dihedrals
0 impropers

2 atom types
0 bond types
0 angle types

0.0 12.990503 xlo xhi
0.0 11.250148 ylo yhi
0.0 15.845291 zlo zhi

Masses

1 69.723
2 14.0067

Atoms

1 1 1.552885 0.873990 2.502288 0 0 0
2 1 1.634335 0.958693 7.782256 0 0 0
3 1 1.541193 0.917843 13.093597 0 0 0
4 1 0.099353 3.842376 2.613364 0 0 0
5 1 12.894571 3.751587 8.010904 0 0 0
6 1 0.025802 3.790625 13.188352 0 0 0
7 1 4.926518 0.890078 2.485968 0 0 0
8 1 3.247366 1.806436 5.423209 0 0 0
9 1 4.939769 0.962889 7.881131 0 0 0
10 1 3.354538 1.883050 10.637102 0 0 0
11 1 4.847536 0.901767 13.277244 0 0 0
12 1 3.326868 1.851212 0.082396 0 0 0
13 1 3.249704 3.726274 2.598311 0 0 0
14 1 1.723450 4.739350 5.360620 0 0 0
15 1 3.244768 3.729312 8.035781 0 0 0
16 1 1.558211 4.578923 10.430479 0 0 0
17 1 3.327777 3.858351 13.197543 0 0 0
18 1 1.605496 4.731700 15.750536 0 0 0
19 1 1.513783 6.553774 2.598628 0 0 0
20 1 1.556522 6.621162 8.064619 0 0 0
21 1 1.518590 6.625550 13.100252 0 0 0
22 1 12.863065 9.354836 2.521778 0 0 0
23 1 0.008513 9.388136 7.978421 0 0 0
24 1 0.097786 9.267085 13.258072 0 0 0
25 1 8.245462 1.046804 2.621445 0 0 0
26 1 6.455760 1.983739 5.271728 0 0 0
27 1 8.071000 0.910823 7.764351 0 0 0
28 1 6.496161 1.791136 10.496237 0 0 0
29 1 8.055671 0.825525 13.285325 0 0 0
30 1 6.537341 1.852112 15.840220 0 0 0
31 1 6.524480 3.667436 2.566779 0 0 0
32 1 4.959125 4.769950 5.135142 0 0 0
33 1 6.493433 3.824375 8.049725 0 0 0
34 1 4.949642 4.795263 10.580693 0 0 0
35 1 6.381974 3.656973 13.349974 0 0 0
36 1 4.858058 4.776250 0.125178 0 0 0
37 1 4.991341 6.625100 2.777363 0 0 0
38 1 3.294132 7.548287 5.161445 0 0 0
39 1 4.763098 6.475360 7.875743 0 0 0
40 1 3.368567 7.469086 10.694462 0 0 0
41 1 4.766475 6.477498 13.195324 0 0 0
42 1 3.357396 7.417898 15.727085 0 0 0
43 1 3.204367 9.364961 2.479630 0 0 0
44 1 1.600040 10.240785 5.394529 0 0 0
45 1 3.260357 9.456425 7.775601 0 0 0
46 1 1.626671 10.232910 10.538544 0 0 0
47 1 3.236064 9.334248 13.333812 0 0 0
48 1 1.681361 10.343386 0.136269 0 0 0
49 1 11.426577 0.942447 2.682132 0 0 0
50 1 9.804193 1.958538 5.392628 0 0 0
51 1 11.296282 0.892744 7.888578 0 0 0
52 1 9.662986 1.806324 10.446959 0 0 0
53 1 11.458923 1.034417 13.287544 0 0 0
54 1 9.654152 1.926588 15.742613 0 0 0
55 1 9.731965 3.830000 2.518767 0 0 0
56 1 8.148683 4.718762 5.356184 0 0 0
57 1 9.679614 3.761037 8.055904 0 0 0
58 1 8.235979 4.711337 10.656433 0 0 0
59 1 9.694813 3.698824 13.176310 0 0 0
60 1 8.183368 4.679724 0.147361 0 0 0
61 1 8.209608 6.522498 2.533504 0 0 0
62 1 6.587484 7.581137 5.151146 0 0 0
63 1 8.186745 6.481435 7.951167 0 0 0
64 1 6.571246 7.435223 10.409722 0 0 0
65 1 8.197917 6.458935 13.275343 0 0 0
66 1 6.453552 7.481236 15.742772 0 0 0
67 1 6.611387 9.293072 2.625723 0 0 0
68 1 4.962762 10.255635 5.254615 0 0 0
69 1 6.623598 9.471387 7.772273 0 0 0
70 1 4.883780 10.200509 10.629338 0 0 0
71 1 6.526169 9.346398 13.133686 0 0 0
72 1 4.755823 10.357786 0.118840 0 0 0
73 1 0.058457 1.894300 5.419565 0 0 0
74 1 12.954260 1.783036 10.553914 0 0 0
75 1 12.903597 1.820386 15.681926 0 0 0
76 1 11.435020 4.746888 5.122782 0 0 0
77 1 11.268872 4.593211 10.424300 0 0 0
78 1 11.390333 4.686699 15.837526 0 0 0
79 1 11.405142 6.639275 2.482323 0 0 0
80 1 9.832252 7.561225 5.209456 0 0 0
81 1 11.418782 6.655475 8.058123 0 0 0
82 1 9.682601 7.422285 10.516995 0 0 0
83 1 11.294723 6.456010 13.097876 0 0 0
84 1 9.676366 7.611963 0.044367 0 0 0
85 1 9.643630 9.448212 2.708752 0 0 0
86 1 8.174794 10.325499 5.238612 0 0 0
87 1 9.703256 9.281822 7.825989 0 0 0
88 1 8.012153 10.371062 10.421606 0 0 0
89 1 9.765221 9.326260 13.205782 0 0 0
90 1 8.242344 10.354074 15.808529 0 0 0
91 1 12.887878 7.480899 5.291376 0 0 0
92 1 12.920744 7.388985 10.571027 0 0 0
93 1 0.098728 7.472798 0.098241 0 0 0
94 1 11.276406 10.335174 5.383437 0 0 0
95 1 11.320574 10.291523 10.530939 0 0 0
96 1 11.386956 10.229085 15.714408 0 0 0
97 2 1.531191 0.923952 4.618110 0 0 0
98 2 1.672267 0.905862 9.848482 0 0 0
99 2 1.504560 1.038209 15.055720 0 0 0
100 2 0.116839 3.689824 4.495626 0 0 0
101 2 0.059369 3.807163 10.034030 0 0 0
102 2 0.026744 3.745962 15.133679 0 0 0
103 2 4.861826 0.927946 4.655505 0 0 0
104 2 3.308551 1.987339 2.089994 0 0 0
105 2 4.814151 1.012165 9.917726 0 0 0
106 2 3.119669 1.932888 7.378993 0 0 0
107 2 4.799991 0.926213 15.313364 0 0 0
108 2 3.141753 1.874162 12.463747 0 0 0
109 2 3.146430 3.738874 4.478671 0 0 0
110 2 1.554574 4.685687 1.936770 0 0 0
111 2 3.271269 3.689824 10.032446 0 0 0
112 2 1.641350 4.761850 7.162705 0 0 0
113 2 3.199301 3.767225 15.070614 0 0 0
114 2 1.667591 4.615711 12.447585 0 0 0
115 2 1.704354 6.462985 4.653445 0 0 0
116 2 1.676814 6.653563 9.842144 0 0 0
117 2 1.717345 6.542299 15.348382 0 0 0
118 2 0.030235 9.478700 4.480890 0 0 0
119 2 12.907441 9.287560 9.809344 0 0 0
120 2 0.098081 9.401074 15.272166 0 0 0
121 2 8.130756 0.869243 4.709696 0 0 0
122 2 6.410034 1.956401 2.091261 0 0 0
123 2 8.183757 0.987279 9.916141 0 0 0
124 2 6.602293 1.825674 7.144483 0 0 0
125 2 8.081262 0.851512 15.224155 0 0 0
126 2 6.458878 1.891937 12.587499 0 0 0
127 2 6.552670 3.762950 4.610980 0 0 0
128 2 4.831298 4.588598 1.968460 0 0 0
129 2 6.422765 3.800638 9.985702 0 0 0
130 2 4.809344 4.575998 7.358394 0 0 0
131 2 6.621779 3.774425 15.146038 0 0 0
132 2 4.992120 4.771525 12.529188 0 0 0
133 2 4.781415 6.596637 4.519394 0 0 0
134 2 3.200730 7.421048 1.878776 0 0 0
135 2 4.807006 6.558611 9.886035 0 0 0
136 2 3.350251 7.452323 7.204537 0 0 0
137 2 4.888326 6.622737 15.319385 0 0 0
138 2 3.212811 7.456486 12.582587 0 0 0
139 2 3.244768 9.317598 4.745031 0 0 0
140 2 1.631997 10.364762 1.955943 0 0 0
141 2 3.305304 9.420987 9.844521 0 0 0
142 2 1.514823 10.339449 7.257935 0 0 0
143 2 3.365320 9.338073 15.251884 0 0 0
144 2 1.614720 10.257210 12.542498 0 0 0
145 2 11.395789 0.925977 4.495943 0 0 0
146 2 9.865768 1.807224 1.856117 0 0 0
147 2 11.377862 0.861548 9.751826 0 0 0
148 2 9.754829 1.904425 7.234009 0 0 0
149 2 11.384228 0.843739 15.190880 0 0 0
150 2 9.635316 1.819261 12.446000 0 0 0
151 2 9.621416 3.834726 4.486911 0 0 0
152 2 8.110621 4.711675 1.941048 0 0 0
153 2 9.728978 3.816725 10.008202 0 0 0
154 2 8.067882 4.630561 7.232900 0 0 0
155 2 9.655711 3.806600 15.051283 0 0 0
156 2 8.012932 4.786601 12.576249 0 0 0
157 2 8.212077 6.535661 4.582775 0 0 0
158 2 6.441211 7.406873 2.032317 0 0 0
159 2 8.231562 6.572562 9.962726 0 0 0
160 2 6.605671 7.516899 7.398800 0 0 0
161 2 8.230133 6.514848 15.330160 0 0 0
162 2 6.576962 7.505761 12.650880 0 0 0
163 2 6.546304 9.459350 4.648533 0 0 0
164 2 4.917815 10.206584 2.068286 0 0 0
165 2 6.410943 9.388586 9.918993 0 0 0
166 2 4.820516 10.357674 7.411159 0 0 0
167 2 6.506943 9.320860 15.038765 0 0 0
168 2 4.938340 10.201859 12.475314 0 0 0
169 2 0.012991 1.793724 1.969094 0 0 0
170 2 12.897491 1.959551 7.283763 0 0 0
171 2 0.022084 1.881925 12.663556 0 0 0
172 2 11.368509 4.740700 2.099501 0 0 0
173 2 11.266534 4.672524 7.199625 0 0 0
174 2 11.462430 4.590173 12.584964 0 0 0
175 2 11.326290 6.510798 4.649325 0 0 0
176 2 9.647267 7.418010 2.124061 0 0 0
177 2 11.323952 6.494598 9.773058 0 0 0
178 2 9.849919 7.602963 7.223393 0 0 0
179 2 11.261727 6.651088 15.153644 0 0 0
180 2 9.654022 7.531974 12.403377 0 0 0
181 2 9.630380 9.383861 4.759608 0 0 0
182 2 8.032418 10.228185 1.832032 0 0 0
183 2 9.811207 9.425262 10.021037 0 0 0
184 2 8.054112 10.338436 7.124835 0 0 0
185 2 9.642331 9.340998 15.181690 0 0 0
186 2 8.009814 10.353624 12.557710 0 0 0
187 2 0.003897 7.599138 1.869427 0 0 0
188 2 0.038972 7.578212 7.219114 0 0 0
189 2 12.878265 7.390222 12.393394 0 0 0
190 2 11.312780 10.249110 1.923301 0 0 0
191 2 11.391502 10.326961 7.178550 0 0 0
192 2 11.338241 10.276223 12.627587 0 0 0
