LAMMPS DATA file

192 atoms
0 bonds
0 angles
0 dihedrals
0 impropers

2 atom types
0 bond types
0 angle types

0.0 12.990503 xlo xhi
0.0 11.250148 ylo yhi
0.0 15.845291 zlo zhi

Masses

1 69.723
2 14.0067

Atoms

1 1 1.520668 1.008958 2.787504 0 0 0
2 1 1.689155 1.029704 7.951484 0 0 0
3 1 1.613161 0.835335 13.230501 0 0 0
4 1 0.073118 3.821563 2.547606 0 0 0
5 1 0.060512 3.789950 8.066837 0 0 0
6 1 12.967537 3.649098 13.140341 0 0 0
7 1 4.823374 0.935877 2.494524 0 0 0
8 1 3.142403 1.816336 5.365849 0 0 0
9 1 4.967309 0.965409 7.864018 0 0 0
10 1 3.188129 1.769761 10.675131 0 0 0
11 1 4.805837 1.046736 13.080921 0 0 0
12 1 3.256200 1.847724 0.083980 0 0 0
13 1 3.355187 3.718849 2.765637 0 0 0
14 1 1.524825 4.582860 5.404512 0 0 0
15 1 3.359474 3.770262 7.776552 0 0 0
16 1 1.723060 4.766238 10.579901 0 0 0
17 1 3.237363 3.652811 13.161891 0 0 0
18 1 1.686297 4.692549 15.838794 0 0 0
19 1 1.709550 6.453873 2.560599 0 0 0
20 1 1.530801 6.457473 7.850391 0 0 0
21 1 1.726178 6.486835 13.353936 0 0 0
22 1 12.894714 9.367773 2.594191 0 0 0
23 1 0.040938 9.459125 7.852134 0 0 0
24 1 12.931482 9.280810 13.099460 0 0 0
25 1 8.186615 1.029670 2.681182 0 0 0
26 1 6.499798 1.920400 5.132131 0 0 0
27 1 8.220520 0.976355 7.810936 0 0 0
28 1 6.495901 1.882150 10.597330 0 0 0
29 1 8.239746 0.953079 13.223529 0 0 0
30 1 6.608919 1.776398 0.044367 0 0 0
31 1 6.391198 3.774537 2.731887 0 0 0
32 1 4.749978 4.692549 5.212150 0 0 0
33 1 6.536951 3.772062 7.778136 0 0 0
34 1 4.973024 4.789526 10.456941 0 0 0
35 1 6.384443 3.859813 13.176151 0 0 0
36 1 4.938730 4.782776 0.112502 0 0 0
37 1 4.991861 6.516873 2.701939 0 0 0
38 1 3.351810 7.584287 5.380427 0 0 0
39 1 4.750627 6.654013 7.957663 0 0 0
40 1 3.266462 7.553687 10.560728 0 0 0
41 1 4.966269 6.481660 13.248723 0 0 0
42 1 3.271788 7.503061 15.758934 0 0 0
43 1 3.370646 9.468800 2.683558 0 0 0
44 1 1.522617 10.315936 5.270302 0 0 0
45 1 3.135388 9.350111 8.013914 0 0 0
46 1 1.698248 10.227172 10.530146 0 0 0
47 1 3.325049 9.319510 13.226698 0 0 0
48 1 1.503391 10.353511 0.098241 0 0 0
49 1 11.418652 0.904163 2.631903 0 0 0
50 1 9.686758 1.822412 5.360303 0 0 0
51 1 11.388644 0.946182 8.072700 0 0 0
52 1 9.812766 1.894412 10.650254 0 0 0
53 1 11.379421 0.842209 13.190729 0 0 0
54 1 9.833681 1.853237 15.756398 0 0 0
55 1 9.753660 3.720537 2.717309 0 0 0
56 1 8.188953 4.652949 5.424477 0 0 0
57 1 9.705465 3.681049 7.787643 0 0 0
58 1 8.070480 4.790651 10.601925 0 0 0
59 1 9.667013 3.712549 13.149214 0 0 0
60 1 8.221689 4.688499 0.014261 0 0 0
61 1 8.194280 6.529024 2.546655 0 0 0
62 1 6.579170 7.404735 5.143857 0 0 0
63 1 8.069571 6.642538 7.909018 0 0 0
64 1 6.449525 7.491136 10.613176 0 0 0
65 1 8.138290 6.639725 13.064442 0 0 0
66 1 6.432897 7.542324 15.818354 0 0 0
67 1 6.449395 9.272935 2.575335 0 0 0
68 1 4.852343 10.338661 5.194879 0 0 0
69 1 6.584756 9.461262 8.052894 0 0 0
70 1 4.887677 10.268348 10.643599 0 0 0
71 1 6.497070 9.400399 13.258072 0 0 0
72 1 4.763358 10.360824 15.775888 0 0 0
73 1 12.921134 1.833999 5.207238 0 0 0
74 1 12.925681 1.790349 10.611274 0 0 0
75 1 12.932955 1.818249 0.015845 0 0 0
76 1 11.250166 4.760275 5.129596 0 0 0
77 1 11.306155 4.643049 10.609531 0 0 0
78 1 11.399426 4.735300 15.768758 0 0 0
79 1 11.495556 6.517661 2.635864 0 0 0
80 1 9.647397 7.589575 5.193294 0 0 0
81 1 11.254193 6.532399 8.072066 0 0 0
82 1 9.668052 7.452323 10.559460 0 0 0
83 1 11.400596 6.538586 13.256012 0 0 0
84 1 9.646748 7.403385 15.695711 0 0 0
85 1 9.756907 9.463062 2.662643 0 0 0
86 1 8.127249 10.345074 5.247010 0 0 0
87 1 9.680913 9.399724 7.959248 0 0 0
88 1 8.186485 10.252710 10.491167 0 0 0
89 1 9.618818 9.328173 13.152700 0 0 0
90 1 8.157906 10.336861 0.076057 0 0 0
91 1 0.100027 7.589125 5.142589 0 0 0
92 1 0.006495 7.397760 10.651997 0 0 0
93 1 12.942438 7.440623 15.766064 0 0 0
94 1 11.273808 10.243710 5.382011 0 0 0
95 1 11.430344 10.367462 10.483878 0 0 0
96 1 11.266274 10.211197 15.768916 0 0 0
97 2 1.664733 0.966016 4.650434 0 0 0
98 2 1.546000 0.917123 9.840401 0 0 0
99 2 1.710589 0.995413 15.306551 0 0 0
100 2 12.968923 3.804575 4.490714 0 0 0
101 2 0.119113 3.792200 9.832795 0 0 0
102 2 0.061219 3.745287 15.308294 0 0 0
103 2 4.825322 0.951245 4.546489 0 0 0
104 2 3.152665 1.815999 1.942950 0 0 0
105 2 4.920283 0.833793 9.968589 0 0 0
106 2 3.185531 1.955276 7.282496 0 0 0
107 2 4.861176 0.859365 15.113238 0 0 0
108 2 3.219436 1.979576 12.555808 0 0 0
109 2 3.149158 3.843388 4.613198 0 0 0
110 2 1.728906 4.640686 2.075575 0 0 0
111 2 3.132270 3.685436 9.996477 0 0 0
112 2 1.674995 4.779288 7.302461 0 0 0
113 2 3.259187 3.807050 15.310037 0 0 0
114 2 1.726178 4.767588 12.607781 0 0 0
115 2 1.599780 6.460848 4.544112 0 0 0
116 2 1.497545 6.535999 10.037833 0 0 0
117 2 1.572760 6.645238 15.078695 0 0 0
118 2 12.941119 9.356748 4.535239 0 0 0
119 2 0.069489 9.317148 10.031178 0 0 0
120 2 12.937905 9.305560 15.261550 0 0 0
121 2 8.237798 1.027847 4.690523 0 0 0
122 2 6.576702 1.957526 2.109167 0 0 0
123 2 8.049046 0.965971 9.827566 0 0 0
124 2 6.480313 1.938626 7.336370 0 0 0
125 2 8.052683 0.991026 15.319861 0 0 0
126 2 6.584107 1.981151 12.436493 0 0 0
127 2 6.588004 3.808963 4.709537 0 0 0
128 2 4.860916 4.661499 1.861663 0 0 0
129 2 6.483690 3.670698 9.843411 0 0 0
130 2 4.840391 4.783113 7.170786 0 0 0
131 2 6.535522 3.726274 15.093432 0 0 0
132 2 4.749718 4.755438 12.490526 0 0 0
133 2 4.935612 6.583024 4.562493 0 0 0
134 2 3.329596 7.588450 2.014570 0 0 0
135 2 4.953279 6.575037 10.008519 0 0 0
136 2 3.127723 7.578550 7.145751 0 0 0
137 2 4.780765 6.613850 15.096125 0 0 0
138 2 3.309461 7.582712 12.457409 0 0 0
139 2 3.307122 9.400624 4.631103 0 0 0
140 2 1.743196 10.241685 1.891294 0 0 0
141 2 3.288936 9.428974 9.868922 0 0 0
142 2 1.747482 10.208047 7.213410 0 0 0
143 2 3.286857 9.271472 15.075051 0 0 0
144 2 1.555873 10.393449 12.680986 0 0 0
145 2 11.238734 0.880403 4.661843 0 0 0
146 2 9.868755 1.982839 2.023919 0 0 0
147 2 11.483215 0.909102 9.822496 0 0 0
148 2 9.760545 1.888562 7.198516 0 0 0
149 2 11.463340 1.015281 15.237465 0 0 0
150 2 9.800945 1.822524 12.429838 0 0 0
151 2 9.652204 3.787812 4.575169 0 0 0
152 2 8.149592 4.749475 2.059888 0 0 0
153 2 9.804323 3.651011 9.822337 0 0 0
154 2 8.110361 4.777375 7.281862 0 0 0
155 2 9.627782 3.816275 15.277712 0 0 0
156 2 8.121403 4.580835 12.700317 0 0 0
157 2 8.052163 6.652775 4.610663 0 0 0
158 2 6.381715 7.409910 1.944534 0 0 0
159 2 8.122572 6.535549 9.750875 0 0 0
160 2 6.551760 7.465261 7.317514 0 0 0
161 2 8.033197 6.589887 15.166637 0 0 0
162 2 6.541238 7.427798 12.672430 0 0 0
163 2 6.406916 9.284635 4.709854 0 0 0
164 2 4.973804 10.255860 2.016947 0 0 0
165 2 6.385222 9.322548 10.018502 0 0 0
166 2 4.919244 10.309861 7.222600 0 0 0
167 2 6.420816 9.314110 15.274385 0 0 0
168 2 4.844418 10.385237 12.557551 0 0 0
169 2 12.887229 1.773361 2.125170 0 0 0
170 2 0.029878 1.985651 7.260471 0 0 0
171 2 0.126008 1.891262 12.464856 0 0 0
172 2 11.267183 4.604348 2.062740 0 0 0
173 2 11.272769 4.617173 7.235118 0 0 0
174 2 11.324081 4.678262 12.423817 0 0 0
175 2 11.281083 6.594387 4.718252 0 0 0
176 2 9.709752 7.456598 2.112177 0 0 0
177 2 11.425018 6.541624 9.809344 0 0 0
178 2 9.626353 7.600038 7.242724 0 0 0
179 2 11.391632 6.565587 15.316058 0 0 0
180 2 9.661297 7.408673 12.409081 0 0 0
181 2 9.625313 9.416262 4.619219 0 0 0
182 2 8.230003 10.292648 2.103462 0 0 0
183 2 9.797438 9.474650 9.902514 0 0 0
184 2 8.102047 10.315373 7.275682 0 0 0
185 2 9.734823 9.478250 15.303382 0 0 0
186 2 8.068531 10.362174 12.662130 0 0 0
187 2 12.940490 7.422848 1.852156 0 0 0
188 2 0.064953 7.507786 7.253340 0 0 0
189 2 0.075345 7.436798 12.488307 0 0 0
190 2 11.426836 10.303673 1.956101 0 0 0
191 2 11.302128 10.330899 7.365683 0 0 0
192 2 11.249906 10.233585 12.546935 0 0 0
