LAMMPS DATA file

192 atoms
0 bonds
0 angles
0 dihedrals
0 impropers

2 atom types
0 bond types
0 angle types

0.0 12.990503 xlo xhi
0.0 11.250148 ylo yhi
0.0 15.845291 zlo zhi

Masses

1 69.723
2 14.0067

Atoms

1 1 1.626281 1.033967 2.619860 0 0 0
2 1 1.659537 0.928362 7.934212 0 0 0
3 1 1.504560 1.005504 13.253318 0 0 0
4 1 12.912647 3.640773 2.718735 0 0 0
5 1 0.017542 3.784775 7.959882 0 0 0
6 1 0.060883 3.837201 13.251575 0 0 0
7 1 4.772841 0.985603 2.618751 0 0 0
8 1 3.284259 1.908475 5.332733 0 0 0
9 1 4.756862 0.875397 7.811887 0 0 0
10 1 3.358954 1.878437 10.613017 0 0 0
11 1 4.915087 0.843334 13.111819 0 0 0
12 1 3.191507 1.968101 15.754022 0 0 0
13 1 3.182284 3.789725 2.682449 0 0 0
14 1 1.676684 4.763425 5.348261 0 0 0
15 1 3.122787 3.768912 8.050517 0 0 0
16 1 1.517680 4.699862 10.694620 0 0 0
17 1 3.169553 3.755749 13.080604 0 0 0
18 1 1.688376 4.645861 15.740712 0 0 0
19 1 1.748652 6.610475 2.738542 0 0 0
20 1 1.671358 6.605187 7.926924 0 0 0
21 1 1.543012 6.560974 13.217824 0 0 0
22 1 0.085292 9.308260 2.644262 0 0 0
23 1 0.079973 9.342573 7.932311 0 0 0
24 1 0.056494 9.308148 13.244445 0 0 0
25 1 7.989159 0.940479 2.657572 0 0 0
26 1 6.367165 1.963376 5.381853 0 0 0
27 1 8.190512 1.002343 7.877169 0 0 0
28 1 6.404968 1.841762 10.603985 0 0 0
29 1 8.231302 0.846011 13.274551 0 0 0
30 1 6.379766 1.932888 15.828178 0 0 0
31 1 6.377038 3.826963 2.529067 0 0 0
32 1 4.771412 4.636186 5.217537 0 0 0
33 1 6.522791 3.789950 8.071749 0 0 0
34 1 4.999655 4.745538 10.486730 0 0 0
35 1 6.613205 3.729987 13.109126 0 0 0
36 1 4.904954 4.578360 15.695077 0 0 0
37 1 4.788429 6.495161 2.704950 0 0 0
38 1 3.232817 7.577875 5.241305 0 0 0
39 1 4.959125 6.618462 7.943720 0 0 0
40 1 3.159420 7.506549 10.546150 0 0 0
41 1 4.840132 6.471085 13.122594 0 0 0
42 1 3.205017 7.472011 15.727719 0 0 0
43 1 3.200081 9.325923 2.736799 0 0 0
44 1 1.582763 10.396374 5.202801 0 0 0
45 1 3.319203 9.399724 7.764351 0 0 0
46 1 1.676165 10.203659 10.616345 0 0 0
47 1 3.345834 9.359786 13.240483 0 0 0
48 1 1.646157 10.251360 0.083980 0 0 0
49 1 11.311481 1.033000 2.571532 0 0 0
50 1 9.752360 1.837599 5.192977 0 0 0
51 1 11.378382 0.849240 7.802221 0 0 0
52 1 9.637524 1.832424 10.657067 0 0 0
53 1 11.370198 1.019972 13.351242 0 0 0
54 1 9.697800 1.811949 0.000000 0 0 0
55 1 9.704685 3.830900 2.559331 0 0 0
56 1 8.208309 4.706162 5.345884 0 0 0
57 1 9.702217 3.639648 7.819651 0 0 0
58 1 8.121013 4.580498 10.573879 0 0 0
59 1 9.684680 3.794225 13.319710 0 0 0
60 1 7.995525 4.651824 15.814868 0 0 0
61 1 8.009944 6.467935 2.499911 0 0 0
62 1 6.599306 7.605663 5.241781 0 0 0
63 1 8.070610 6.574587 8.009636 0 0 0
64 1 6.572805 7.581812 10.652472 0 0 0
65 1 7.990848 6.657050 13.046220 0 0 0
66 1 6.373011 7.547724 0.006338 0 0 0
67 1 6.501617 9.375649 2.497693 0 0 0
68 1 4.801290 10.226497 5.431449 0 0 0
69 1 6.383663 9.276085 7.968438 0 0 0
70 1 4.830908 10.229085 10.601450 0 0 0
71 1 6.559295 9.443824 13.125763 0 0 0
72 1 4.854291 10.290511 0.028522 0 0 0
73 1 0.070149 1.974289 5.159544 0 0 0
74 1 12.926980 1.847612 10.714585 0 0 0
75 1 12.949193 1.964951 15.756557 0 0 0
76 1 11.293944 4.798076 5.419248 0 0 0
77 1 11.402544 4.688499 10.513033 0 0 0
78 1 11.436449 4.751500 15.690482 0 0 0
79 1 11.250425 6.522836 2.730302 0 0 0
80 1 9.776653 7.608700 5.167942 0 0 0
81 1 11.396958 6.519573 7.785742 0 0 0
82 1 9.840826 7.520499 10.495604 0 0 0
83 1 11.280433 6.526548 13.061907 0 0 0
84 1 9.782758 7.442536 0.076057 0 0 0
85 1 9.690656 9.356861 2.494683 0 0 0
86 1 7.997214 10.242135 5.203752 0 0 0
87 1 9.630120 9.337623 7.774492 0 0 0
88 1 8.015530 10.216260 10.686222 0 0 0
89 1 9.694033 9.395786 13.160148 0 0 0
90 1 8.236369 10.367124 0.117255 0 0 0
91 1 0.025981 7.542774 5.241781 0 0 0
92 1 12.918666 7.417110 10.454247 0 0 0
93 1 0.114316 7.395397 0.114086 0 0 0
94 1 11.372536 10.381974 5.259686 0 0 0
95 1 11.326809 10.370499 10.513667 0 0 0
96 1 11.381370 10.400087 0.102994 0 0 0
97 2 1.557302 0.923030 4.731087 0 0 0
98 2 1.533529 0.995548 10.028167 0 0 0
99 2 1.624333 0.953326 15.301956 0 0 0
100 2 0.125917 3.815375 4.579764 0 0 0
101 2 0.000496 3.694999 9.911863 0 0 0
102 2 12.881026 3.650111 15.233345 0 0 0
103 2 4.901836 0.843345 4.661684 0 0 0
104 2 3.259187 1.955163 2.031366 0 0 0
105 2 4.812072 0.849026 9.769572 0 0 0
106 2 3.279323 1.919838 7.196614 0 0 0
107 2 4.851174 0.907324 15.058097 0 0 0
108 2 3.135907 1.789674 12.606038 0 0 0
109 2 3.174619 3.690949 4.471383 0 0 0
110 2 1.682790 4.701324 2.002686 0 0 0
111 2 3.310630 3.823138 9.874944 0 0 0
112 2 1.529242 4.619086 7.337796 0 0 0
113 2 3.291664 3.651011 15.153802 0 0 0
114 2 1.621475 4.749250 12.438078 0 0 0
115 2 1.620046 6.466248 4.718094 0 0 0
116 2 1.596143 6.503261 9.775910 0 0 0
117 2 1.514433 6.658738 15.096917 0 0 0
118 2 0.118625 9.339086 4.772760 0 0 0
119 2 12.949752 9.276872 9.944504 0 0 0
120 2 0.014451 9.466550 15.095808 0 0 0
121 2 8.193760 0.903252 4.776721 0 0 0
122 2 6.582548 1.922650 1.895731 0 0 0
123 2 7.993187 0.872269 9.920420 0 0 0
124 2 6.393536 1.954601 7.398166 0 0 0
125 2 8.075806 0.930567 15.033061 0 0 0
126 2 6.446148 1.871687 12.474363 0 0 0
127 2 6.542797 3.842601 4.649325 0 0 0
128 2 4.810513 4.784013 1.848036 0 0 0
129 2 6.528118 3.850926 9.913923 0 0 0
130 2 4.990042 4.636299 7.276474 0 0 0
131 2 6.602034 3.685886 15.294191 0 0 0
132 2 4.777517 4.673537 12.668627 0 0 0
133 2 4.924570 6.561874 4.661684 0 0 0
134 2 3.137986 7.441973 1.835835 0 0 0
135 2 4.961463 6.453423 9.924698 0 0 0
136 2 3.148768 7.519937 7.306580 0 0 0
137 2 4.935612 6.519798 15.322554 0 0 0
138 2 3.321022 7.410360 12.480226 0 0 0
139 2 3.353498 9.287560 4.718886 0 0 0
140 2 1.520538 10.372974 2.037546 0 0 0
141 2 3.318554 9.472287 9.806333 0 0 0
142 2 1.499234 10.387712 7.259361 0 0 0
143 2 3.145910 9.282610 15.068554 0 0 0
144 2 1.537556 10.418987 12.481811 0 0 0
145 2 11.392412 1.016755 4.546172 0 0 0
146 2 9.801854 1.852674 1.926154 0 0 0
147 2 11.406701 0.913175 9.788111 0 0 0
148 2 9.867197 1.879112 7.270295 0 0 0
149 2 11.321224 0.869400 15.305600 0 0 0
150 2 9.682601 1.883725 12.565949 0 0 0
151 2 9.863299 3.698149 4.552827 0 0 0
152 2 8.069701 4.700424 1.947545 0 0 0
153 2 9.676886 3.789725 9.833112 0 0 0
154 2 8.238967 4.687037 7.244942 0 0 0
155 2 9.760545 3.775437 15.287853 0 0 0
156 2 8.218052 4.611098 12.419539 0 0 0
157 2 8.070480 6.586737 4.588638 0 0 0
158 2 6.605801 7.400460 2.142759 0 0 0
159 2 8.162453 6.588987 9.797143 0 0 0
160 2 6.372881 7.516449 7.118972 0 0 0
161 2 8.174014 6.498198 15.112921 0 0 0
162 2 6.614375 7.428473 12.644225 0 0 0
163 2 6.375739 9.332223 4.774978 0 0 0
164 2 4.810903 10.227510 2.020116 0 0 0
165 2 6.533054 9.459350 10.034664 0 0 0
166 2 4.755304 10.371062 7.381687 0 0 0
167 2 6.490445 9.279572 15.060790 0 0 0
168 2 4.793496 10.375224 12.520315 0 0 0
169 2 0.084438 1.795861 2.059888 0 0 0
170 2 12.899570 1.951226 7.282337 0 0 0
171 2 0.119513 1.779548 12.687166 0 0 0
172 2 11.330187 4.590173 2.133727 0 0 0
173 2 11.405532 4.669712 7.298499 0 0 0
174 2 11.326939 4.624036 12.403218 0 0 0
175 2 11.276666 6.534086 4.746457 0 0 0
176 2 9.727549 7.531074 1.950555 0 0 0
177 2 11.454246 6.622512 9.790171 0 0 0
178 2 9.637005 7.536137 7.229097 0 0 0
179 2 11.264845 6.590449 15.229067 0 0 0
180 2 9.849789 7.523987 12.545033 0 0 0
181 2 9.762753 9.483650 4.632846 0 0 0
182 2 8.079703 10.421237 2.142125 0 0 0
183 2 9.845762 9.429424 9.960983 0 0 0
184 2 8.179730 10.298273 7.236069 0 0 0
185 2 9.669611 9.461037 15.330636 0 0 0
186 2 8.235719 10.224135 12.409556 0 0 0
187 2 12.903077 7.506324 1.849779 0 0 0
188 2 12.863196 7.408223 7.301985 0 0 0
189 2 12.875148 7.535687 12.573713 0 0 0
190 2 11.256011 10.254510 1.938988 0 0 0
191 2 11.269651 10.366449 7.250647 0 0 0
192 2 11.241332 10.353511 12.670370 0 0 0
