LAMMPS DATA file

64 atoms

1 atom types

0.000000 10.862000 xlo xhi
0.000000 10.862000 ylo yhi
0.000000 10.862000 zlo zhi

Masses

1 28.0855

Atoms

1 1 6.798760 1.389280 1.333090
2 1 9.515680 4.066900 1.371140
3 1 9.529520 1.311630 4.073510
4 1 1.365380 1.347410 1.341850
5 1 4.107310 4.061170 1.387580
6 1 6.786820 6.782810 1.394370
7 1 9.457290 9.432520 1.335760
8 1 4.073540 1.366950 4.042100
9 1 6.768090 4.082190 4.082730
10 1 9.505060 6.806170 4.038840
11 1 6.777130 1.347230 6.773330
12 1 9.486490 4.102560 6.760010
13 1 9.543170 1.347520 9.501930
14 1 1.297950 6.825570 1.396750
15 1 3.999650 9.569160 1.354790
16 1 1.391040 4.051390 4.153110
17 1 4.073620 6.750630 4.093810
18 1 6.816270 9.507940 4.118170
19 1 1.392060 1.375110 6.815370
20 1 4.039990 4.036500 6.818880
21 1 6.751170 6.836030 6.791020
22 1 9.518440 9.556310 6.788960
23 1 4.089920 1.328940 9.499540
24 1 6.832410 4.038860 9.480470
25 1 9.465790 6.774650 9.516610
26 1 1.368590 9.471660 4.019940
27 1 1.358370 6.857690 6.757970
28 1 4.095330 9.488050 6.743300
29 1 1.371540 4.092500 9.551480
30 1 4.056290 6.798910 9.506820
31 1 6.786390 9.504090 9.521670
32 1 1.345650 9.523350 9.485370
33 1 5.424600 -0.003630 -0.027956
34 1 8.142140 2.696020 -0.040783
35 1 8.135180 -0.025005 2.709890
36 1 -0.060673 -0.023593 -0.000836
37 1 2.733030 2.726110 0.021469
38 1 5.439110 5.405520 -0.005443
39 1 8.099960 8.111350 0.035782
40 1 2.700570 0.008007 2.687580
41 1 5.428760 2.713910 2.709210
42 1 8.124680 5.429760 2.718970
43 1 5.480750 0.019140 5.409880
44 1 8.139140 2.722150 5.459410
45 1 8.152110 0.012958 8.165250
46 1 0.008770 5.434860 0.003154
47 1 2.685960 8.149960 -0.050843
48 1 0.020325 2.717790 2.725520
49 1 2.714980 5.416570 2.720240
50 1 5.441620 8.146890 2.727630
51 1 0.071695 -0.016810 5.435140
52 1 2.752060 2.719590 5.414570
53 1 5.412900 5.426700 5.441140
54 1 8.204200 8.147220 5.466810
55 1 2.741150 0.020966 8.105280
56 1 5.477210 2.713930 8.121090
57 1 8.136270 5.428390 8.146140
58 1 -0.016624 8.120970 2.718480
59 1 -0.004729 5.458070 5.443970
60 1 2.737880 8.140290 5.417010
61 1 -0.020239 2.725920 8.173220
62 1 2.663300 5.441840 8.113300
63 1 5.416900 8.158830 8.173600
64 1 -0.011690 8.159690 8.147870
