LAMMPS DATA file generated by structure.cpp

1728 atoms

1 atom types

0.0 33.960000 xlo xhi
0.0 33.960000 ylo yhi
0.0 33.960000 zlo zhi

Masses

1 72.64

Atoms

1 1 29.715000 1.415000 1.415000
2 1 32.545000 4.245000 1.415000
3 1 32.545000 1.415000 4.245000
4 1 24.055000 1.415000 1.415000
5 1 26.885000 4.245000 1.415000
6 1 29.715000 7.075000 1.415000
7 1 32.545000 9.905001 1.415000
8 1 26.885000 1.415000 4.245000
9 1 29.715000 4.245000 4.245000
10 1 32.545000 7.075000 4.245000
11 1 29.715000 1.415000 7.075000
12 1 32.545000 4.245000 7.075000
13 1 32.545000 1.415000 9.905001
14 1 18.395000 1.415000 1.415000
15 1 21.225000 4.245000 1.415000
16 1 24.055000 7.075000 1.415000
17 1 26.885000 9.905001 1.415000
18 1 29.715001 12.735001 1.415000
19 1 32.545000 15.565001 1.415000
20 1 21.225000 1.415000 4.245000
21 1 24.055000 4.245000 4.245000
22 1 26.885000 7.075000 4.245000
23 1 29.715000 9.905001 4.245000
24 1 32.545000 12.735001 4.245000
25 1 24.055000 1.415000 7.075000
26 1 26.885000 4.245000 7.075000
27 1 29.715000 7.075000 7.075000
28 1 32.545000 9.905001 7.075000
29 1 26.885000 1.415000 9.905001
30 1 29.715000 4.245000 9.905001
31 1 32.545000 7.075000 9.905001
32 1 29.715001 1.415000 12.735001
33 1 32.545000 4.245000 12.735001
34 1 32.545000 1.415000 15.565001
35 1 12.735000 1.415000 1.415000
36 1 15.565001 4.245000 1.415000
37 1 18.395000 7.075000 1.415000
38 1 21.225000 9.905001 1.415000
39 1 24.055000 12.735000 1.415000
40 1 26.885000 15.565001 1.415000
41 1 29.715000 18.395000 1.415000
42 1 32.545000 21.225000 1.415000
43 1 15.565001 1.415000 4.245000
44 1 18.395000 4.245000 4.245000
45 1 21.225000 7.075000 4.245000
46 1 24.055000 9.905001 4.245000
47 1 26.885000 12.735000 4.245000
48 1 29.715001 15.565001 4.245000
49 1 32.545000 18.395000 4.245000
50 1 18.395000 1.415000 7.075000
51 1 21.225000 4.245000 7.075000
52 1 24.055000 7.075000 7.075000
53 1 26.885000 9.905001 7.075000
54 1 29.715000 12.735000 7.075000
55 1 32.545000 15.565001 7.075000
56 1 21.225000 1.415000 9.905001
57 1 24.055000 4.245000 9.905001
58 1 26.885000 7.075000 9.905001
59 1 29.715000 9.905001 9.905001
60 1 32.545000 12.735000 9.905001
61 1 24.055000 1.415000 12.735000
62 1 26.885000 4.245000 12.735000
63 1 29.715000 7.075000 12.735000
64 1 32.545000 9.905001 12.735000
65 1 26.885000 1.415000 15.565001
66 1 29.715001 4.245000 15.565001
67 1 32.545000 7.075000 15.565001
68 1 29.715000 1.415000 18.395000
69 1 32.545000 4.245000 18.395000
70 1 32.545000 1.415000 21.225000
71 1 7.075000 1.415000 1.415000
72 1 9.905001 4.245000 1.415000
73 1 12.735000 7.075000 1.415000
74 1 15.565001 9.905001 1.415000
75 1 18.395000 12.735000 1.415000
76 1 21.225000 15.565001 1.415000
77 1 24.055000 18.395001 1.415000
78 1 26.885000 21.225000 1.415000
79 1 29.715000 24.055000 1.415000
80 1 32.545000 26.885000 1.415000
81 1 9.905001 1.415000 4.245000
82 1 12.735000 4.245000 4.245000
83 1 15.565001 7.075000 4.245000
84 1 18.395000 9.905001 4.245000
85 1 21.225000 12.735000 4.245000
86 1 24.055000 15.565001 4.245000
87 1 26.885000 18.395001 4.245000
88 1 29.715000 21.225000 4.245000
89 1 32.545000 24.055000 4.245000
90 1 12.735000 1.415000 7.075000
91 1 15.565001 4.245000 7.075000
92 1 18.395000 7.075000 7.075000
93 1 21.225000 9.905001 7.075000
94 1 24.055000 12.735000 7.075000
95 1 26.885000 15.565001 7.075000
96 1 29.715001 18.395001 7.075000
97 1 32.545000 21.225000 7.075000
98 1 15.565001 1.415000 9.905001
99 1 18.395000 4.245000 9.905001
100 1 21.225000 7.075000 9.905001
101 1 24.055000 9.905001 9.905001
102 1 26.885000 12.735000 9.905001
103 1 29.715000 15.565001 9.905001
104 1 32.545000 18.395001 9.905001
105 1 18.395000 1.415000 12.735000
106 1 21.225000 4.245000 12.735000
107 1 24.055000 7.075000 12.735000
108 1 26.885000 9.905001 12.735000
109 1 29.715000 12.735000 12.735000
110 1 32.545000 15.565001 12.735000
111 1 21.225000 1.415000 15.565001
112 1 24.055000 4.245000 15.565001
113 1 26.885000 7.075000 15.565001
114 1 29.715000 9.905001 15.565001
115 1 32.545000 12.735000 15.565001
116 1 24.055000 1.415000 18.395001
117 1 26.885000 4.245000 18.395001
118 1 29.715001 7.075000 18.395001
119 1 32.545000 9.905001 18.395001
120 1 26.885000 1.415000 21.225000
121 1 29.715000 4.245000 21.225000
122 1 32.545000 7.075000 21.225000
123 1 29.715000 1.415000 24.055000
124 1 32.545000 4.245000 24.055000
125 1 32.545000 1.415000 26.885000
126 1 1.415000 1.415000 1.415000
127 1 4.245000 4.245000 1.415000
128 1 7.075000 7.075000 1.415000
129 1 9.905001 9.905001 1.415000
130 1 12.735000 12.735000 1.415000
131 1 15.565001 15.565001 1.415000
132 1 18.395000 18.395000 1.415000
133 1 21.225000 21.225000 1.415000
134 1 24.055000 24.055000 1.415000
135 1 26.885000 26.885000 1.415000
136 1 29.715000 29.715000 1.415000
137 1 32.545000 32.545000 1.415000
138 1 4.245000 1.415000 4.245000
139 1 7.075000 4.245000 4.245000
140 1 9.905001 7.075000 4.245000
141 1 12.735000 9.905001 4.245000
142 1 15.565001 12.735000 4.245000
143 1 18.395000 15.565001 4.245000
144 1 21.225000 18.395000 4.245000
145 1 24.055000 21.225000 4.245000
146 1 26.885000 24.055000 4.245000
147 1 29.715000 26.885000 4.245000
148 1 32.545000 29.715000 4.245000
149 1 7.075000 1.415000 7.075000
150 1 9.905001 4.245000 7.075000
151 1 12.735000 7.075000 7.075000
152 1 15.565001 9.905001 7.075000
153 1 18.395000 12.735000 7.075000
154 1 21.225000 15.565001 7.075000
155 1 24.055000 18.395000 7.075000
156 1 26.885000 21.225000 7.075000
157 1 29.715000 24.055000 7.075000
158 1 32.545000 26.885000 7.075000
159 1 9.905001 1.415000 9.905001
160 1 12.735000 4.245000 9.905001
161 1 15.565001 7.075000 9.905001
162 1 18.395000 9.905001 9.905001
163 1 21.225000 12.735000 9.905001
164 1 24.055000 15.565001 9.905001
165 1 26.885000 18.395000 9.905001
166 1 29.715001 21.225000 9.905001
167 1 32.545000 24.055000 9.905001
168 1 12.735000 1.415000 12.735000
169 1 15.565001 4.245000 12.735000
170 1 18.395000 7.075000 12.735000
171 1 21.225000 9.905001 12.735000
172 1 24.055000 12.735000 12.735000
173 1 26.885000 15.565001 12.735000
174 1 29.715000 18.395000 12.735000
175 1 32.545000 21.225000 12.735000
176 1 15.565001 1.415000 15.565001
177 1 18.395000 4.245000 15.565001
178 1 21.225000 7.075000 15.565001
179 1 24.055000 9.905001 15.565001
180 1 26.885000 12.735000 15.565001
181 1 29.715000 15.565001 15.565001
182 1 32.545000 18.395000 15.565001
183 1 18.395000 1.415000 18.395000
184 1 21.225000 4.245000 18.395000
185 1 24.055000 7.075000 18.395000
186 1 26.885000 9.905001 18.395000
187 1 29.715000 12.735000 18.395000
188 1 32.545000 15.565001 18.395000
189 1 21.225000 1.415000 21.225000
190 1 24.055000 4.245000 21.225000
191 1 26.885000 7.075000 21.225000
192 1 29.715001 9.905001 21.225000
193 1 32.545000 12.735000 21.225000
194 1 24.055000 1.415000 24.055000
195 1 26.885000 4.245000 24.055000
196 1 29.715000 7.075000 24.055000
197 1 32.545000 9.905001 24.055000
198 1 26.885000 1.415000 26.885000
199 1 29.715000 4.245000 26.885000
200 1 32.545000 7.075000 26.885000
201 1 29.715000 1.415000 29.715000
202 1 32.545000 4.245000 29.715000
203 1 32.545000 1.415000 32.545000
204 1 1.415000 7.075000 1.415000
205 1 4.245000 9.905001 1.415000
206 1 7.075000 12.735000 1.415000
207 1 9.905001 15.565001 1.415000
208 1 12.735000 18.395000 1.415000
209 1 15.565001 21.225000 1.415000
210 1 18.395001 24.055000 1.415000
211 1 21.225000 26.885000 1.415000
212 1 24.055000 29.715000 1.415000
213 1 26.885000 32.545000 1.415000
214 1 1.415000 4.245000 4.245000
215 1 4.245000 7.075000 4.245000
216 1 7.075000 9.905001 4.245000
217 1 9.905001 12.735000 4.245000
218 1 12.735000 15.565001 4.245000
219 1 15.565001 18.395000 4.245000
220 1 18.395000 21.225000 4.245000
221 1 21.225000 24.055000 4.245000
222 1 24.055000 26.885000 4.245000
223 1 26.885000 29.715000 4.245000
224 1 29.715000 32.545000 4.245000
225 1 1.415000 1.415000 7.075000
226 1 4.245000 4.245000 7.075000
227 1 7.075000 7.075000 7.075000
228 1 9.905001 9.905001 7.075000
229 1 12.735000 12.735000 7.075000
230 1 15.565001 15.565001 7.075000
231 1 18.395000 18.395000 7.075000
232 1 21.225000 21.225000 7.075000
233 1 24.055000 24.055000 7.075000
234 1 26.885000 26.885000 7.075000
235 1 29.715000 29.715000 7.075000
236 1 32.545000 32.545000 7.075000
237 1 4.245000 1.415000 9.905001
238 1 7.075000 4.245000 9.905001
239 1 9.905001 7.075000 9.905001
240 1 12.735000 9.905001 9.905001
241 1 15.565001 12.735000 9.905001
242 1 18.395000 15.565001 9.905001
243 1 21.225000 18.395000 9.905001
244 1 24.055000 21.225000 9.905001
245 1 26.885000 24.055000 9.905001
246 1 29.715000 26.885000 9.905001
247 1 32.545000 29.715000 9.905001
248 1 7.075000 1.415000 12.735000
249 1 9.905001 4.245000 12.735000
250 1 12.735000 7.075000 12.735000
251 1 15.565001 9.905001 12.735000
252 1 18.395000 12.735000 12.735000
253 1 21.225000 15.565001 12.735000
254 1 24.055000 18.395000 12.735000
255 1 26.885000 21.225000 12.735000
256 1 29.715001 24.055000 12.735000
257 1 32.545000 26.885000 12.735000
258 1 9.905001 1.415000 15.565001
259 1 12.735000 4.245000 15.565001
260 1 15.565001 7.075000 15.565001
261 1 18.395000 9.905001 15.565001
262 1 21.225000 12.735000 15.565001
263 1 24.055000 15.565001 15.565001
264 1 26.885000 18.395000 15.565001
265 1 29.715000 21.225000 15.565001
266 1 32.545000 24.055000 15.565001
267 1 12.735000 1.415000 18.395000
268 1 15.565001 4.245000 18.395000
269 1 18.395000 7.075000 18.395000
270 1 21.225000 9.905001 18.395000
271 1 24.055000 12.735000 18.395000
272 1 26.885000 15.565001 18.395000
273 1 29.715000 18.395000 18.395000
274 1 32.545000 21.225000 18.395000
275 1 15.565001 1.415000 21.225000
276 1 18.395000 4.245000 21.225000
277 1 21.225000 7.075000 21.225000
278 1 24.055000 9.905001 21.225000
279 1 26.885000 12.735000 21.225000
280 1 29.715000 15.565001 21.225000
281 1 32.545000 18.395000 21.225000
282 1 18.395001 1.415000 24.055000
283 1 21.225000 4.245000 24.055000
284 1 24.055000 7.075000 24.055000
285 1 26.885000 9.905001 24.055000
286 1 29.715001 12.735000 24.055000
287 1 32.545000 15.565001 24.055000
288 1 21.225000 1.415000 26.885000
289 1 24.055000 4.245000 26.885000
290 1 26.885000 7.075000 26.885000
291 1 29.715000 9.905001 26.885000
292 1 32.545000 12.735000 26.885000
293 1 24.055000 1.415000 29.715000
294 1 26.885000 4.245000 29.715000
295 1 29.715000 7.075000 29.715000
296 1 32.545000 9.905001 29.715000
297 1 26.885000 1.415000 32.545000
298 1 29.715000 4.245000 32.545000
299 1 32.545000 7.075000 32.545000
300 1 1.415000 12.735000 1.415000
301 1 4.245000 15.565001 1.415000
302 1 7.075000 18.395000 1.415000
303 1 9.905001 21.225000 1.415000
304 1 12.735000 24.055000 1.415000
305 1 15.565001 26.885000 1.415000
306 1 18.395000 29.715000 1.415000
307 1 21.225000 32.545000 1.415000
308 1 1.415000 9.905001 4.245000
309 1 4.245000 12.735000 4.245000
310 1 7.075000 15.565001 4.245000
311 1 9.905001 18.395000 4.245000
312 1 12.735000 21.225000 4.245000
313 1 15.565001 24.055000 4.245000
314 1 18.395001 26.885000 4.245000
315 1 21.225000 29.715000 4.245000
316 1 24.055000 32.545000 4.245000
317 1 1.415000 7.075000 7.075000
318 1 4.245000 9.905001 7.075000
319 1 7.075000 12.735000 7.075000
320 1 9.905001 15.565001 7.075000
321 1 12.735000 18.395000 7.075000
322 1 15.565001 21.225000 7.075000
323 1 18.395000 24.055000 7.075000
324 1 21.225000 26.885000 7.075000
325 1 24.055000 29.715000 7.075000
326 1 26.885000 32.545000 7.075000
327 1 1.415000 4.245000 9.905001
328 1 4.245000 7.075000 9.905001
329 1 7.075000 9.905001 9.905001
330 1 9.905001 12.735000 9.905001
331 1 12.735000 15.565001 9.905001
332 1 15.565001 18.395000 9.905001
333 1 18.395000 21.225000 9.905001
334 1 21.225000 24.055000 9.905001
335 1 24.055000 26.885000 9.905001
336 1 26.885000 29.715000 9.905001
337 1 29.715000 32.545000 9.905001
338 1 1.415000 1.415000 12.735000
339 1 4.245000 4.245000 12.735000
340 1 7.075000 7.075000 12.735000
341 1 9.905001 9.905001 12.735000
342 1 12.735000 12.735000 12.735000
343 1 15.565001 15.565001 12.735000
344 1 18.395000 18.395000 12.735000
345 1 21.225000 21.225000 12.735000
346 1 24.055000 24.055000 12.735000
347 1 26.885000 26.885000 12.735000
348 1 29.715000 29.715000 12.735000
349 1 32.545000 32.545000 12.735000
350 1 4.245000 1.415000 15.565001
351 1 7.075000 4.245000 15.565001
352 1 9.905001 7.075000 15.565001
353 1 12.735000 9.905001 15.565001
354 1 15.565001 12.735000 15.565001
355 1 18.395000 15.565001 15.565001
356 1 21.225000 18.395000 15.565001
357 1 24.055000 21.225000 15.565001
358 1 26.885000 24.055000 15.565001
359 1 29.715001 26.885000 15.565001
360 1 32.545000 29.715000 15.565001
361 1 7.075000 1.415000 18.395000
362 1 9.905001 4.245000 18.395000
363 1 12.735000 7.075000 18.395000
364 1 15.565001 9.905001 18.395000
365 1 18.395000 12.735000 18.395000
366 1 21.225000 15.565001 18.395000
367 1 24.055000 18.395000 18.395000
368 1 26.885000 21.225000 18.395000
369 1 29.715000 24.055000 18.395000
370 1 32.545000 26.885000 18.395000
371 1 9.905001 1.415000 21.225000
372 1 12.735000 4.245000 21.225000
373 1 15.565001 7.075000 21.225000
374 1 18.395000 9.905001 21.225000
375 1 21.225000 12.735000 21.225000
376 1 24.055000 15.565001 21.225000
377 1 26.885000 18.395000 21.225000
378 1 29.715000 21.225000 21.225000
379 1 32.545000 24.055000 21.225000
380 1 12.735000 1.415000 24.055000
381 1 15.565001 4.245000 24.055000
382 1 18.395000 7.075000 24.055000
383 1 21.225000 9.905001 24.055000
384 1 24.055000 12.735000 24.055000
385 1 26.885000 15.565001 24.055000
386 1 29.715000 18.395000 24.055000
387 1 32.545000 21.225000 24.055000
388 1 15.565001 1.415000 26.885000
389 1 18.395001 4.245000 26.885000
390 1 21.225000 7.075000 26.885000
391 1 24.055000 9.905001 26.885000
392 1 26.885000 12.735000 26.885000
393 1 29.715001 15.565001 26.885000
394 1 32.545000 18.395000 26.885000
395 1 18.395000 1.415000 29.715000
396 1 21.225000 4.245000 29.715000
397 1 24.055000 7.075000 29.715000
398 1 26.885000 9.905001 29.715000
399 1 29.715000 12.735000 29.715000
400 1 32.545000 15.565001 29.715000
401 1 21.225000 1.415000 32.545000
402 1 24.055000 4.245000 32.545000
403 1 26.885000 7.075000 32.545000
404 1 29.715000 9.905001 32.545000
405 1 32.545000 12.735000 32.545000
406 1 1.415000 18.395000 1.415000
407 1 4.245000 21.225000 1.415000
408 1 7.075000 24.055000 1.415000
409 1 9.905001 26.885000 1.415000
410 1 12.735001 29.715001 1.415000
411 1 15.565001 32.545000 1.415000
412 1 1.415000 15.565001 4.245000
413 1 4.245000 18.395000 4.245000
414 1 7.075000 21.225000 4.245000
415 1 9.905001 24.055000 4.245000
416 1 12.735000 26.885000 4.245000
417 1 15.565001 29.715001 4.245000
418 1 18.395000 32.545000 4.245000
419 1 1.415000 12.735000 7.075000
420 1 4.245000 15.565001 7.075000
421 1 7.075000 18.395000 7.075000
422 1 9.905001 21.225000 7.075000
423 1 12.735000 24.055000 7.075000
424 1 15.565001 26.885000 7.075000
425 1 18.395001 29.715001 7.075000
426 1 21.225000 32.545000 7.075000
427 1 1.415000 9.905001 9.905001
428 1 4.245000 12.735000 9.905001
429 1 7.075000 15.565001 9.905001
430 1 9.905001 18.395000 9.905001
431 1 12.735000 21.225000 9.905001
432 1 15.565001 24.055000 9.905001
433 1 18.395000 26.885000 9.905001
434 1 21.225000 29.715001 9.905001
435 1 24.055000 32.545000 9.905001
436 1 1.415000 7.075000 12.735000
437 1 4.245000 9.905001 12.735000
438 1 7.075000 12.735000 12.735000
439 1 9.905001 15.565001 12.735000
440 1 12.735000 18.395000 12.735000
441 1 15.565001 21.225000 12.735000
442 1 18.395000 24.055000 12.735000
443 1 21.225000 26.885000 12.735000
444 1 24.055000 29.715001 12.735000
445 1 26.885000 32.545000 12.735000
446 1 1.415000 4.245000 15.565001
447 1 4.245000 7.075000 15.565001
448 1 7.075000 9.905001 15.565001
449 1 9.905001 12.735000 15.565001
450 1 12.735000 15.565001 15.565001
451 1 15.565001 18.395000 15.565001
452 1 18.395000 21.225000 15.565001
453 1 21.225000 24.055000 15.565001
454 1 24.055000 26.885000 15.565001
455 1 26.885000 29.715001 15.565001
456 1 29.715000 32.545000 15.565001
457 1 1.415000 1.415000 18.395000
458 1 4.245000 4.245000 18.395000
459 1 7.075000 7.075000 18.395000
460 1 9.905001 9.905001 18.395000
461 1 12.735000 12.735000 18.395000
462 1 15.565001 15.565001 18.395000
463 1 18.395000 18.395000 18.395000
464 1 21.225000 21.225000 18.395000
465 1 24.055000 24.055000 18.395000
466 1 26.885000 26.885000 18.395000
467 1 29.715001 29.715001 18.395000
468 1 32.545000 32.545000 18.395000
469 1 4.245000 1.415000 21.225000
470 1 7.075000 4.245000 21.225000
471 1 9.905001 7.075000 21.225000
472 1 12.735000 9.905001 21.225000
473 1 15.565001 12.735000 21.225000
474 1 18.395000 15.565001 21.225000
475 1 21.225000 18.395000 21.225000
476 1 24.055000 21.225000 21.225000
477 1 26.885000 24.055000 21.225000
478 1 29.715000 26.885000 21.225000
479 1 32.545000 29.715001 21.225000
480 1 7.075000 1.415000 24.055000
481 1 9.905001 4.245000 24.055000
482 1 12.735000 7.075000 24.055000
483 1 15.565001 9.905001 24.055000
484 1 18.395000 12.735000 24.055000
485 1 21.225000 15.565001 24.055000
486 1 24.055000 18.395000 24.055000
487 1 26.885000 21.225000 24.055000
488 1 29.715000 24.055000 24.055000
489 1 32.545000 26.885000 24.055000
490 1 9.905001 1.415000 26.885000
491 1 12.735000 4.245000 26.885000
492 1 15.565001 7.075000 26.885000
493 1 18.395000 9.905001 26.885000
494 1 21.225000 12.735000 26.885000
495 1 24.055000 15.565001 26.885000
496 1 26.885000 18.395000 26.885000
497 1 29.715000 21.225000 26.885000
498 1 32.545000 24.055000 26.885000
499 1 12.735001 1.415000 29.715001
500 1 15.565001 4.245000 29.715001
501 1 18.395001 7.075000 29.715001
502 1 21.225000 9.905001 29.715001
503 1 24.055000 12.735000 29.715001
504 1 26.885000 15.565001 29.715001
505 1 29.715001 18.395000 29.715001
506 1 32.545000 21.225000 29.715001
507 1 15.565001 1.415000 32.545000
508 1 18.395000 4.245000 32.545000
509 1 21.225000 7.075000 32.545000
510 1 24.055000 9.905001 32.545000
511 1 26.885000 12.735000 32.545000
512 1 29.715000 15.565001 32.545000
513 1 32.545000 18.395000 32.545000
514 1 1.415000 24.055000 1.415000
515 1 4.245000 26.885000 1.415000
516 1 7.075000 29.715000 1.415000
517 1 9.905001 32.545000 1.415000
518 1 1.415000 21.225000 4.245000
519 1 4.245000 24.055000 4.245000
520 1 7.075000 26.885000 4.245000
521 1 9.905001 29.715000 4.245000
522 1 12.735001 32.545000 4.245000
523 1 1.415000 18.395000 7.075000
524 1 4.245000 21.225000 7.075000
525 1 7.075000 24.055000 7.075000
526 1 9.905001 26.885000 7.075000
527 1 12.735000 29.715000 7.075000
528 1 15.565001 32.545000 7.075000
529 1 1.415000 15.565001 9.905001
530 1 4.245000 18.395000 9.905001
531 1 7.075000 21.225000 9.905001
532 1 9.905001 24.055000 9.905001
533 1 12.735000 26.885000 9.905001
534 1 15.565001 29.715000 9.905001
535 1 18.395001 32.545000 9.905001
536 1 1.415000 12.735000 12.735000
537 1 4.245000 15.565001 12.735000
538 1 7.075000 18.395000 12.735000
539 1 9.905001 21.225000 12.735000
540 1 12.735000 24.055000 12.735000
541 1 15.565001 26.885000 12.735000
542 1 18.395000 29.715000 12.735000
543 1 21.225000 32.545000 12.735000
544 1 1.415000 9.905001 15.565001
545 1 4.245000 12.735000 15.565001
546 1 7.075000 15.565001 15.565001
547 1 9.905001 18.395000 15.565001
548 1 12.735000 21.225000 15.565001
549 1 15.565001 24.055000 15.565001
550 1 18.395000 26.885000 15.565001
551 1 21.225000 29.715000 15.565001
552 1 24.055000 32.545000 15.565001
553 1 1.415000 7.075000 18.395000
554 1 4.245000 9.905001 18.395000
555 1 7.075000 12.735000 18.395000
556 1 9.905001 15.565001 18.395000
557 1 12.735000 18.395000 18.395000
558 1 15.565001 21.225000 18.395000
559 1 18.395000 24.055000 18.395000
560 1 21.225000 26.885000 18.395000
561 1 24.055000 29.715000 18.395000
562 1 26.885000 32.545000 18.395000
563 1 1.415000 4.245000 21.225000
564 1 4.245000 7.075000 21.225000
565 1 7.075000 9.905001 21.225000
566 1 9.905001 12.735000 21.225000
567 1 12.735000 15.565001 21.225000
568 1 15.565001 18.395000 21.225000
569 1 18.395000 21.225000 21.225000
570 1 21.225000 24.055000 21.225000
571 1 24.055000 26.885000 21.225000
572 1 26.885000 29.715000 21.225000
573 1 29.715001 32.545000 21.225000
574 1 1.415000 1.415000 24.055000
575 1 4.245000 4.245000 24.055000
576 1 7.075000 7.075000 24.055000
577 1 9.905001 9.905001 24.055000
578 1 12.735000 12.735000 24.055000
579 1 15.565001 15.565001 24.055000
580 1 18.395000 18.395000 24.055000
581 1 21.225000 21.225000 24.055000
582 1 24.055000 24.055000 24.055000
583 1 26.885000 26.885000 24.055000
584 1 29.715000 29.715000 24.055000
585 1 32.545000 32.545000 24.055000
586 1 4.245000 1.415000 26.885000
587 1 7.075000 4.245000 26.885000
588 1 9.905001 7.075000 26.885000
589 1 12.735000 9.905001 26.885000
590 1 15.565001 12.735000 26.885000
591 1 18.395000 15.565001 26.885000
592 1 21.225000 18.395000 26.885000
593 1 24.055000 21.225000 26.885000
594 1 26.885000 24.055000 26.885000
595 1 29.715000 26.885000 26.885000
596 1 32.545000 29.715000 26.885000
597 1 7.075000 1.415000 29.715000
598 1 9.905001 4.245000 29.715000
599 1 12.735000 7.075000 29.715000
600 1 15.565001 9.905001 29.715000
601 1 18.395000 12.735000 29.715000
602 1 21.225000 15.565001 29.715000
603 1 24.055000 18.395000 29.715000
604 1 26.885000 21.225000 29.715000
605 1 29.715000 24.055000 29.715000
606 1 32.545000 26.885000 29.715000
607 1 9.905001 1.415000 32.545000
608 1 12.735001 4.245000 32.545000
609 1 15.565001 7.075000 32.545000
610 1 18.395001 9.905001 32.545000
611 1 21.225000 12.735000 32.545000
612 1 24.055000 15.565001 32.545000
613 1 26.885000 18.395000 32.545000
614 1 29.715001 21.225000 32.545000
615 1 32.545000 24.055000 32.545000
616 1 1.415000 29.715000 1.415000
617 1 4.245000 32.545000 1.415000
618 1 1.415000 26.885000 4.245000
619 1 4.245000 29.715000 4.245000
620 1 7.075000 32.545000 4.245000
621 1 1.415000 24.055000 7.075000
622 1 4.245000 26.885000 7.075000
623 1 7.075000 29.715000 7.075000
624 1 9.905001 32.545000 7.075000
625 1 1.415000 21.225000 9.905001
626 1 4.245000 24.055000 9.905001
627 1 7.075000 26.885000 9.905001
628 1 9.905001 29.715000 9.905001
629 1 12.735000 32.545000 9.905001
630 1 1.415000 18.395000 12.735000
631 1 4.245000 21.225000 12.735000
632 1 7.075000 24.055000 12.735000
633 1 9.905001 26.885000 12.735000
634 1 12.735000 29.715000 12.735000
635 1 15.565001 32.545000 12.735000
636 1 1.415000 15.565001 15.565001
637 1 4.245000 18.395000 15.565001
638 1 7.075000 21.225000 15.565001
639 1 9.905001 24.055000 15.565001
640 1 12.735000 26.885000 15.565001
641 1 15.565001 29.715000 15.565001
642 1 18.395000 32.545000 15.565001
643 1 1.415000 12.735000 18.395000
644 1 4.245000 15.565001 18.395000
645 1 7.075000 18.395000 18.395000
646 1 9.905001 21.225000 18.395000
647 1 12.735000 24.055000 18.395000
648 1 15.565001 26.885000 18.395000
649 1 18.395000 29.715000 18.395000
650 1 21.225000 32.545000 18.395000
651 1 1.415000 9.905001 21.225000
652 1 4.245000 12.735000 21.225000
653 1 7.075000 15.565001 21.225000
654 1 9.905001 18.395000 21.225000
655 1 12.735000 21.225000 21.225000
656 1 15.565001 24.055000 21.225000
657 1 18.395000 26.885000 21.225000
658 1 21.225000 29.715000 21.225000
659 1 24.055000 32.545000 21.225000
660 1 1.415000 7.075000 24.055000
661 1 4.245000 9.905001 24.055000
662 1 7.075000 12.735000 24.055000
663 1 9.905001 15.565001 24.055000
664 1 12.735000 18.395000 24.055000
665 1 15.565001 21.225000 24.055000
666 1 18.395000 24.055000 24.055000
667 1 21.225000 26.885000 24.055000
668 1 24.055000 29.715000 24.055000
669 1 26.885000 32.545000 24.055000
670 1 1.415000 4.245000 26.885000
671 1 4.245000 7.075000 26.885000
672 1 7.075000 9.905001 26.885000
673 1 9.905001 12.735000 26.885000
674 1 12.735000 15.565001 26.885000
675 1 15.565001 18.395000 26.885000
676 1 18.395000 21.225000 26.885000
677 1 21.225000 24.055000 26.885000
678 1 24.055000 26.885000 26.885000
679 1 26.885000 29.715000 26.885000
680 1 29.715000 32.545000 26.885000
681 1 1.415000 1.415000 29.715000
682 1 4.245000 4.245000 29.715000
683 1 7.075000 7.075000 29.715000
684 1 9.905001 9.905001 29.715000
685 1 12.735000 12.735000 29.715000
686 1 15.565001 15.565001 29.715000
687 1 18.395000 18.395000 29.715000
688 1 21.225000 21.225000 29.715000
689 1 24.055000 24.055000 29.715000
690 1 26.885000 26.885000 29.715000
691 1 29.715000 29.715000 29.715000
692 1 32.545000 32.545000 29.715000
693 1 4.245000 1.415000 32.545000
694 1 7.075000 4.245000 32.545000
695 1 9.905001 7.075000 32.545000
696 1 12.735000 9.905001 32.545000
697 1 15.565001 12.735000 32.545000
698 1 18.395000 15.565001 32.545000
699 1 21.225000 18.395000 32.545000
700 1 24.055000 21.225000 32.545000
701 1 26.885000 24.055000 32.545000
702 1 29.715000 26.885000 32.545000
703 1 32.545000 29.715000 32.545000
704 1 1.415000 32.545000 4.245000
705 1 1.415000 29.715000 7.075000
706 1 4.245000 32.545000 7.075000
707 1 1.415000 26.885000 9.905001
708 1 4.245000 29.715000 9.905001
709 1 7.075000 32.545000 9.905001
710 1 1.415000 24.055000 12.735000
711 1 4.245000 26.885000 12.735000
712 1 7.075000 29.715000 12.735000
713 1 9.905001 32.545000 12.735000
714 1 1.415000 21.225000 15.565001
715 1 4.245000 24.055000 15.565001
716 1 7.075000 26.885000 15.565001
717 1 9.905001 29.715000 15.565001
718 1 12.735000 32.545000 15.565001
719 1 1.415000 18.395000 18.395000
720 1 4.245000 21.225000 18.395000
721 1 7.075000 24.055000 18.395000
722 1 9.905001 26.885000 18.395000
723 1 12.735000 29.715000 18.395000
724 1 15.565001 32.545000 18.395000
725 1 1.415000 15.565001 21.225000
726 1 4.245000 18.395000 21.225000
727 1 7.075000 21.225000 21.225000
728 1 9.905001 24.055000 21.225000
729 1 12.735000 26.885000 21.225000
730 1 15.565001 29.715000 21.225000
731 1 18.395000 32.545000 21.225000
732 1 1.415000 12.735000 24.055000
733 1 4.245000 15.565001 24.055000
734 1 7.075000 18.395000 24.055000
735 1 9.905001 21.225000 24.055000
736 1 12.735000 24.055000 24.055000
737 1 15.565001 26.885000 24.055000
738 1 18.395000 29.715000 24.055000
739 1 21.225000 32.545000 24.055000
740 1 1.415000 9.905001 26.885000
741 1 4.245000 12.735000 26.885000
742 1 7.075000 15.565001 26.885000
743 1 9.905001 18.395000 26.885000
744 1 12.735000 21.225000 26.885000
745 1 15.565001 24.055000 26.885000
746 1 18.395000 26.885000 26.885000
747 1 21.225000 29.715000 26.885000
748 1 24.055000 32.545000 26.885000
749 1 1.415000 7.075000 29.715000
750 1 4.245000 9.905001 29.715000
751 1 7.075000 12.735000 29.715000
752 1 9.905001 15.565001 29.715000
753 1 12.735000 18.395000 29.715000
754 1 15.565001 21.225000 29.715000
755 1 18.395000 24.055000 29.715000
756 1 21.225000 26.885000 29.715000
757 1 24.055000 29.715000 29.715000
758 1 26.885000 32.545000 29.715000
759 1 1.415000 4.245000 32.545000
760 1 4.245000 7.075000 32.545000
761 1 7.075000 9.905001 32.545000
762 1 9.905001 12.735000 32.545000
763 1 12.735000 15.565001 32.545000
764 1 15.565001 18.395000 32.545000
765 1 18.395000 21.225000 32.545000
766 1 21.225000 24.055000 32.545000
767 1 24.055000 26.885000 32.545000
768 1 26.885000 29.715000 32.545000
769 1 29.715000 32.545000 32.545000
770 1 1.415000 32.545000 9.905001
771 1 1.415000 29.715001 12.735001
772 1 4.245000 32.545000 12.735001
773 1 1.415000 26.885000 15.565001
774 1 4.245000 29.715001 15.565001
775 1 7.075000 32.545000 15.565001
776 1 1.415000 24.055000 18.395001
777 1 4.245000 26.885000 18.395001
778 1 7.075000 29.715001 18.395001
779 1 9.905001 32.545000 18.395001
780 1 1.415000 21.225000 21.225000
781 1 4.245000 24.055000 21.225000
782 1 7.075000 26.885000 21.225000
783 1 9.905001 29.715001 21.225000
784 1 12.735000 32.545000 21.225000
785 1 1.415000 18.395001 24.055000
786 1 4.245000 21.225000 24.055000
787 1 7.075000 24.055000 24.055000
788 1 9.905001 26.885000 24.055000
789 1 12.735000 29.715001 24.055000
790 1 15.565001 32.545000 24.055000
791 1 1.415000 15.565001 26.885000
792 1 4.245000 18.395001 26.885000
793 1 7.075000 21.225000 26.885000
794 1 9.905001 24.055000 26.885000
795 1 12.735000 26.885000 26.885000
796 1 15.565001 29.715001 26.885000
797 1 18.395000 32.545000 26.885000
798 1 1.415000 12.735001 29.715001
799 1 4.245000 15.565001 29.715001
800 1 7.075000 18.395001 29.715001
801 1 9.905001 21.225000 29.715001
802 1 12.735000 24.055000 29.715001
803 1 15.565001 26.885000 29.715001
804 1 18.395000 29.715001 29.715001
805 1 21.225000 32.545000 29.715001
806 1 1.415000 9.905001 32.545000
807 1 4.245000 12.735001 32.545000
808 1 7.075000 15.565001 32.545000
809 1 9.905001 18.395001 32.545000
810 1 12.735000 21.225000 32.545000
811 1 15.565001 24.055000 32.545000
812 1 18.395000 26.885000 32.545000
813 1 21.225000 29.715001 32.545000
814 1 24.055000 32.545000 32.545000
815 1 1.415000 32.545000 15.565001
816 1 1.415000 29.715000 18.395000
817 1 4.245000 32.545000 18.395000
818 1 1.415000 26.885000 21.225000
819 1 4.245000 29.715000 21.225000
820 1 7.075000 32.545000 21.225000
821 1 1.415000 24.055000 24.055000
822 1 4.245000 26.885000 24.055000
823 1 7.075000 29.715000 24.055000
824 1 9.905001 32.545000 24.055000
825 1 1.415000 21.225000 26.885000
826 1 4.245000 24.055000 26.885000
827 1 7.075000 26.885000 26.885000
828 1 9.905001 29.715000 26.885000
829 1 12.735000 32.545000 26.885000
830 1 1.415000 18.395000 29.715000
831 1 4.245000 21.225000 29.715000
832 1 7.075000 24.055000 29.715000
833 1 9.905001 26.885000 29.715000
834 1 12.735000 29.715000 29.715000
835 1 15.565001 32.545000 29.715000
836 1 1.415000 15.565001 32.545000
837 1 4.245000 18.395000 32.545000
838 1 7.075000 21.225000 32.545000
839 1 9.905001 24.055000 32.545000
840 1 12.735000 26.885000 32.545000
841 1 15.565001 29.715000 32.545000
842 1 18.395000 32.545000 32.545000
843 1 1.415000 32.545000 21.225000
844 1 1.415000 29.715000 24.055000
845 1 4.245000 32.545000 24.055000
846 1 1.415000 26.885000 26.885000
847 1 4.245000 29.715000 26.885000
848 1 7.075000 32.545000 26.885000
849 1 1.415000 24.055000 29.715000
850 1 4.245000 26.885000 29.715000
851 1 7.075000 29.715000 29.715000
852 1 9.905001 32.545000 29.715000
853 1 1.415000 21.225000 32.545000
854 1 4.245000 24.055000 32.545000
855 1 7.075000 26.885000 32.545000