LAMMPS data file via write_data, version 18 Sep 2020, timestep = 54020000

1728 atoms
1 atom types

0.0 33.96 xlo xhi
0.0 33.96 ylo yhi
0.0 33.96 zlo zhi

Masses

1 72.64

Atoms # atomic

309 1 1.5930674202003778 4.634314811583917 2.862724462464144 3 2 -6
1654 1 6.302540911948837 5.419137147396916 1.1111844134756226 7 8 0
98 1 1.3653817969852653 5.786573615701648 0.7533168704745223 4 0 3
406 1 4.494973117283841 2.3455095721227877 2.854020909668936 1 -3 -3
743 1 5.3334041659546445 4.574244611491585 3.282966522363094 -1 -3 0
805 1 2.117322965371353 2.307923699809559 2.7357893834975804 -3 0 5
1373 1 5.623564872235551 1.7808294141669587 0.7855995370599202 1 -3 1
636 1 1.5496851863598449 1.1886332513210198 0.6921677263403356 -4 10 2
83 1 7.626505351249995 0.7474952401709087 1.7843032057054968 1 -6 0
344 1 3.338771087580004 5.675231813573233 3.9854754435224855 2 2 2
574 1 8.475227048651417 4.4573486952321675 0.395086908320442 4 0 -2
794 1 1.2600788792065032 0.921998001600225 4.5845053949313295 -5 -1 -2
963 1 0.4183470288208866 2.1031356602351883 6.550348495903584 -3 3 4
1378 1 5.577201982403731 2.552685972667302 6.5614657472925755 -6 -3 -4
1561 1 6.663524966143599 4.359186347915974 5.280933691772122 -6 2 0
17 1 5.059371027057741 0.9782183113283597 4.707313491784205 -2 -6 0
188 1 2.8570354360701717 5.52756504010546 6.483368838792972 -4 0 2
347 1 3.8005565593256567 3.676880454406115 7.779156834858284 -6 4 -3
795 1 0.5337014590222264 5.7140542274743105 7.58452065624272 1 -1 -5
1013 1 6.680374500962865 6.578864083438146 6.364244701485864 -6 2 -1
559 1 2.008179413189089 2.1041843596813634 8.342315566380577 -3 2 1
1594 1 6.505998320543928 1.2319163298780462 8.40356921363972 -2 -1 9
196 1 6.525711618393537 5.249460336244599 11.309297334681741 7 -1 0
967 1 4.853804685178705 0.3733613876142481 10.088901399221626 4 -4 -7
732 1 2.9692510708882933 3.793203906263244 11.553638674421306 2 2 0
684 1 1.011158227263006 3.1086154929519663 10.305044688184383 3 -1 0
462 1 4.42678991512954 4.894095432013158 9.96419597168551 -5 7 -2
920 1 4.257040883137935 1.7162848969756361 12.159122176702855 0 -4 -1
214 1 8.191863186354682 1.2936483332471196 11.81000971984764 -11 -2 10
638 1 8.344334780671312 2.3053281077418375 9.51151869399574 8 4 -4
611 1 8.388817860143233 4.666123918920546 9.869890615383628 -6 -4 -4
1120 1 2.733944557013258 0.5780198663195182 13.679973483380351 2 2 0
1413 1 6.4048092958740295 2.019665762051302 13.350062659528852 -4 6 2
1157 1 6.68703392932187 4.3522115797062995 13.596397793121655 -1 1 3
903 1 4.94889743928914 5.074589818505852 15.219321179732063 -3 -6 3
1194 1 1.8069392564522924 2.2818963596354895 15.353627361180294 -7 2 -6
467 1 3.5205604733520977 3.5934259748952755 16.590963161340294 -2 -9 0
939 1 6.618688166317046 1.0852935334198355 15.656263117563617 1 -10 -3
1119 1 1.8022558212527413 5.416004032025015 12.99593671217865 -3 -6 6
1631 1 0.31734055426209934 4.0260077916985235 14.422519528905205 2 -1 2
1221 1 0.4494976064276413 0.8708576774377982 16.81586619147485 -3 -1 3
381 1 3.4048480757012536 6.657033320067456 14.294385568013453 -3 0 1
943 1 7.652128305495114 1.1886547858898449 20.29885576598645 4 0 3
1066 1 7.567204348560169 4.629375820314989 18.11201313077713 -1 -1 -3
617 1 5.019201786572002 1.8889307825771733 17.376803772595974 0 1 -3
1042 1 2.8153095736315934 5.367650294293963 18.409523190422355 1 -5 -1
264 1 2.897657879056572 4.062541187720161 20.543834022141645 3 -2 -1
63 1 6.31487943972143 2.865540900363474 19.186527506277336 9 0 -6
566 1 2.3013500480871785 1.7260518123803543 20.05171563893699 2 1 -2
937 1 4.831673241978694 6.7682071290246 19.014876882902094 3 5 1
817 1 3.6036503820218475 0.2682058470685933 18.512777937845698 3 7 -5
1556 1 0.25084500551347233 6.1971432967918565 19.28320469664939 -1 3 10
573 1 5.251579915567041 3.9389467230477755 21.14341033675995 -1 12 -1
1301 1 8.363494985201685 5.826266418602004 19.994007626397394 4 2 1
683 1 6.129753521206556 6.222157371531347 17.00952035347389 -7 0 -1
354 1 0.0468601350452412 1.8731613276825627 19.05511534933347 -3 2 5
465 1 6.081159840587463 6.248049833852335 21.174311742382717 -1 -8 -1
1490 1 1.61580597392851 3.75577327625607 24.227457212172016 -2 -4 2
1183 1 5.864387512663308 2.833313049680148 23.265945848147386 -3 1 -2
947 1 1.9160976209940705 5.422379351543093 22.463315299797753 2 2 -1
660 1 2.638559276140394 0.3768316160100683 22.006790273140698 0 -6 -1
1074 1 1.029157523480746 1.4408966996648132 23.38960521394601 10 -4 4
666 1 3.9216725955324736 3.6833206106647065 24.926538415721563 -7 -6 -3
1708 1 6.751638001858483 6.411819158257016 25.26882287675988 0 10 7
6 1 4.953635645040564 0.4895060496504663 22.931081836727063 -4 -1 -5
150 1 7.385932181113157 4.097163675789398 25.187751048602212 -5 2 -1
1315 1 4.383188330099992 6.056713883215766 25.29595829081645 -2 5 -1
902 1 8.432513611690752 2.369965790125596 22.257804520194803 5 7 0
806 1 3.954168967535657 6.707747126499541 22.995756978619987 2 -5 3
1491 1 1.3045980636601524 0.25838497667581495 25.42798974443855 0 1 -3
1272 1 0.38324495212606086 3.5187189109155455 28.40517297518892 3 -3 2
373 1 6.445902021648996 3.2304635439329163 27.38094145989109 2 7 3
1276 1 2.717146556224551 3.304188502038326 28.870912500381618 4 1 -5
1242 1 4.117413142833181 2.5189319619761488 27.027926270742487 2 5 -1
93 1 7.752568709718763 1.2541151557859576 27.722139172644017 6 0 -4
964 1 3.6855744891599946 5.55435815389275 29.195591660904793 6 6 -9
1429 1 0.30901570335242656 4.709167371366672 26.174638019739046 0 4 -1
878 1 3.501579437509489 0.23914941933203585 26.567571830819386 5 -2 -1
223 1 5.97573117137339 4.734637643170452 29.37730708132002 -1 -5 3
958 1 7.54663809259015 6.554203762507664 29.44837414155502 6 6 -3
1137 1 5.096327486215949 4.016758346508239 33.50554576762435 4 0 6
889 1 2.8293829465622102 1.7432634318239022 30.76498725212746 -1 6 1
200 1 6.262110283443518 3.4315607708656337 31.451793626484076 1 -3 4
14 1 5.212110364443824 1.2571687232943247 31.259115559046176 2 1 -4
950 1 1.5997302049697921 2.66491241321226 32.69123185809127 -2 7 1
1148 1 2.776158047761113 4.740814262460221 33.04482422014809 5 0 -8
1441 1 2.7071804645575845 6.4281282669568505 31.224245869281674 2 4 -3
255 1 6.940222560786488 0.23639012451951869 29.849317774934185 2 1 0
1290 1 0.34702729316750075 6.740086371883577 30.620570036537035 4 -2 3
715 1 1.0834958567602846 10.820900313293071 3.3650997313469975 0 -1 0
1356 1 6.920453247153987 12.602996860340692 3.012690892033241 0 -2 -5
883 1 3.1662557765946384 12.031337179085073 2.308134370910958 -5 5 -4
680 1 6.479918035986486 7.860558517989881 0.9372399691031748 6 4 -4
899 1 5.540299070625791 8.8282026178881 3.0325137865004965 -4 2 -4
627 1 3.2901172593630914 7.829967658583171 2.8424549578188323 -7 4 1
800 1 5.040117968968525 11.203677979034204 3.5356500112416014 -10 -2 -6
1327 1 7.562993858347193 12.141088624603187 0.6983998807336367 3 1 -3
901 1 1.9266163093670992 8.25544268560122 0.5381629220690785 -1 -5 -5
85 1 0.18564620284785938 10.051740622756784 1.311778572517108 0 1 -1
1628 1 0.15540578446499742 12.332879047636201 0.38019269232657565 4 2 -9
604 1 4.250774044258449 11.536813785129459 5.830833053127241 -1 -1 -6
961 1 6.308192247987026 11.74462709164079 7.088290570311292 11 -4 -2
60 1 4.302505315049005 7.356118800877441 7.018779926985745 0 2 -5
1570 1 1.0933460484576705 9.4762595327668 7.917496919312382 1 3 5
94 1 7.303383727619408 8.321641285982473 4.7703539035907925 4 -4 4
1448 1 3.021597143053298 9.403726838291531 6.383448531681382 0 0 1
473 1 7.989159851118511 10.437510477097595 5.852094112417789 -4 0 -3
206 1 1.367800600254433 13.412383287020022 7.688845403142237 0 1 -6
353 1 1.790362034961903 8.837420472224247 4.3720114270210635 3 1 3
736 1 2.0511834475668467 8.483660355436763 10.177467797350817 0 -2 -1
1481 1 6.180613141152506 10.91122570477699 9.37723584802801 -2 -4 1
376 1 6.604626789695982 7.620546509853924 11.74883712634777 -3 -2 0
396 1 2.457254132062064 13.23083330849508 9.916338334422498 4 3 1
955 1 6.4419247096864 8.528529019249849 9.548391462230123 -4 1 -4
1170 1 3.139286029757469 9.860138046023485 11.910071477531824 -4 1 3
1557 1 4.288323256723254 11.673808452684577 10.780339346181723 2 8 -4
242 1 8.24453124866939 11.820416867238928 10.320007548506311 3 7 4
647 1 4.1234492130352685 7.291277455117241 9.374452415402724 6 10 4
172 1 5.627700953428005 12.910029090877844 12.425484729041223 -2 -4 -2
699 1 0.5768482724407858 6.954911466339749 11.493120382775441 -4 7 -4
991 1 5.737533181567001 9.696264596343228 14.782724832458607 1 -4 -2
786 1 3.7408857319758355 10.792190876043147 15.65010142821573 0 -5 2
941 1 7.014955491802992 11.522424235571888 13.864657983071934 -2 -4 9
531 1 1.969635719142245 10.835448136566077 13.88294606660071 0 2 3
685 1 7.232996718098999 8.130922846036338 16.02490130330566 6 -2 4
80 1 1.8540922064923058 13.210179139001886 13.665945495134926 0 2 -6
835 1 2.3554109166338457 7.215408459476947 16.47604462754812 5 0 5
1155 1 4.707495752858852 8.385337233532724 13.080987946493812 -2 -3 0
1384 1 8.099002450492414 12.832152170114037 15.615970778296049 -3 7 0
763 1 4.3973719112520175 12.835832664536326 16.86426316776054 1 1 -2
625 1 6.549555738030274 12.474724538439322 17.720776994407686 -2 2 -5
885 1 3.2392344362266083 9.841680353437212 20.989475407840764 -1 -3 5
1126 1 0.8449507874985653 9.98104530763288 20.53003436470755 4 0 4
483 1 6.5636760729046815 10.364713804832071 19.007433082197792 -1 1 -2
1281 1 4.467900069965712 9.104134949604491 19.084918699887808 0 2 1
1114 1 0.9932451071171362 12.706671680259001 17.947126592505622 2 7 1
809 1 0.9149242776916764 10.366257738152113 18.119994408893056 -1 0 -1
1639 1 3.159621192296685 13.133980750562952 18.86414533065686 10 -5 -1
1124 1 3.8565231792403387 12.144916586835983 20.96793605175305 2 2 -7
445 1 2.924001263376608 9.386034286844826 17.310820805172284 2 -2 -5
1397 1 8.311538625447982 9.266782894115645 17.782192665807287 8 1 1
345 1 5.171925619474719 13.080522450824906 25.219761595716008 5 -8 1
404 1 6.3194117403237415 9.736014133698454 23.24700977339962 3 -1 -5
708 1 2.8340293247072057 12.449696551315016 24.777728995534186 -6 -1 3
79 1 2.2875410792335775 13.058425057108494 22.504633180727797 -1 -2 0
380 1 3.9580356344117247 9.103408824862614 23.14252151970026 1 3 -2
1214 1 2.645732378599644 9.973091051941427 25.040689572513852 0 -2 -3
204 1 7.3345831279637395 7.548638006943311 23.16785026859808 -5 7 -4
1590 1 0.4764439443315405 8.607162312099229 24.851700917734156 5 2 -2
109 1 0.21021576037765735 12.055159820338883 21.71107489400444 1 -4 0
1365 1 6.61969435354372 11.086932893149049 25.269445020268936 5 6 4
363 1 6.12389058602009 13.074066863657377 21.442930366122418 3 -1 1
918 1 0.08418867129106562 7.05546154884725 22.88552482424394 4 2 -9
1053 1 7.247232569628524 10.97588739730178 21.298102292522536 0 0 -3
375 1 6.137164583910904 9.712027424074053 27.224644664048746 0 -3 1
895 1 4.435651817027923 13.016089925686087 29.308540371913406 -3 3 0
1392 1 2.6976438495691593 11.258294995285958 28.92901877502328 2 3 0
24 1 7.557037867784825 7.644009300912328 27.21165123500446 1 -2 -1
1600 1 3.6654819791894058 9.502908793667899 27.305202983940358 0 3 8
1102 1 0.6802054585321752 12.491831756235072 28.087561016893183 -2 -2 -4
727 1 7.389321366725626 10.560535124121051 29.167817221715868 -1 -1 -3
731 1 3.167526883234348 7.041578884655781 27.24941135754676 4 -1 2
1717 1 0.7870381356536198 7.045012852571416 26.696501942806204 3 5 -7
1408 1 1.9642677153125747 12.511363815968918 32.75590336037568 0 -2 1
199 1 6.28742859163704 12.08393407145996 30.637600296687243 8 -4 1
833 1 7.468260832938588 8.644905745428716 30.804374369381474 2 0 0
513 1 3.2787942056971504 8.617448435988864 32.331397749212826 1 -2 -3
334 1 2.0621581650110605 10.577779072514627 31.238507367937213 1 4 0
1326 1 5.754549588347979 8.912376757183425 32.74322015279329 2 3 5
1525 1 5.868965457425178 11.348002496619042 33.005354993293494 -1 -2 -4
570 1 8.158511208993584 13.558510901131434 30.93591267961771 0 3 -4
1444 1 4.02042320201347 12.653470646348962 33.92189016526961 3 1 -5
1196 1 2.580406482700584 19.860694898296874 1.3324809451893262 -1 -3 6
153 1 6.340063182773895 14.950135230179551 3.3649359509255614 6 0 0
1250 1 4.448269018398402 16.59832084521196 0.4813339501043649 2 6 0
499 1 4.095078795689468 15.718298195767579 2.6622822869242637 2 2 -7
1117 1 6.421958708688889 17.9698542071305 0.9291783554285091 -8 -2 3
601 1 7.866276810520366 16.237734867531316 1.986569037726558 10 -2 8
1097 1 1.6353872890418835 18.908027102879547 3.4181493708073165 -7 2 1
1106 1 6.23503930313998 19.772362587655422 2.5371984172413056 7 -4 1
1713 1 2.391909670747581 14.080505927411485 3.2468113436865513 -3 -5 1
1121 1 0.13905520997495743 14.18841250744789 2.1133444595398037 0 5 -3
858 1 8.333464187468124 14.523501578560621 0.39832097437373276 1 1 -2
1031 1 3.839593524371144 15.89023611704596 6.149953181840087 -4 2 -3
1151 1 5.4088858444813805 19.01292512704073 4.6759153119615915 5 1 -2
401 1 7.16842377797716 14.042606642052226 7.29493374947419 1 -4 4
224 1 6.27776589470282 15.571438661633842 5.678453764019616 10 0 0
1359 1 7.092433846615974 17.807825425952 5.93915208386517 1 -2 0
526 1 2.6235766681476425 16.708908629371653 8.133353626749317 0 0 0
519 1 0.3812982925835136 15.678046852454978 7.910206239175968 3 0 7
33 1 0.7022783998183865 20.2189169871139 7.4814057421182945 3 0 2
645 1 4.782411384884314 19.897688318790884 8.411319121674808 1 5 2
1674 1 2.8777314234003177 13.648724960810942 5.7418202721480975 -1 2 -1
250 1 3.5327136601404634 17.49720482652464 4.250589530980802 4 1 -1
162 1 5.489796449673017 17.951118383533284 11.18214999713 3 1 1
1577 1 2.4946585764469495 19.066586756255383 8.767211843749308 -2 -1 2
853 1 2.0457284050946725 19.45250484850076 11.1768023798352 4 4 -6
454 1 6.262623032481057 15.30088401898068 9.217053101164213 -4 0 2
571 1 7.355375908846317 14.024399250854252 11.04309063100329 3 -4 1
1080 1 3.864322257387134 16.24534401622119 11.875801594109724 4 9 -3
1664 1 3.7884768292411675 15.256196285598225 9.702440819151512 1 -6 -2
1071 1 1.9052901390309605 17.393463343768435 12.41340842752904 -3 -4 2
1112 1 0.6263386550084579 13.720793970250837 11.655673669007772 -6 2 1
1257 1 6.440680256553361 17.967574650439694 8.562576928436537 1 4 5
1699 1 8.431018786593235 19.199656244636014 8.97873119728933 -5 6 1
1268 1 2.7611522776922754 19.906737237874616 15.530003560996027 -2 -3 6
1399 1 7.98214799507548 15.598138434151968 15.69966617167498 -9 1 -8
1067 1 4.041525986000564 14.383368348790412 13.435006076218757 7 -1 -2
11 1 2.048278917294167 15.87875682108042 16.169819713586485 5 4 -4
730 1 4.218942320456588 14.9783524962844 15.754002800354025 -2 -1 -5
1689 1 1.7428964717941908 17.813295773884118 14.782644984621106 -5 -1 -1
1677 1 6.4949291635463355 19.8235704498653 14.701632115397368 -2 -4 4
1 1 0.7378165510790977 13.919418913319848 15.75093835725458 -1 3 -1
1311 1 5.962339695797703 16.337638187114752 16.692719573053918 3 -4 -1
602 1 5.97579278991905 18.716186401284666 16.827050792437674 5 0 -3
257 1 7.157651113537674 18.51595143549124 12.796632900831236 4 -1 2
1521 1 3.7534742663246647 19.468782457707302 17.708476113820716 -8 1 3
1711 1 1.7053039819941513 16.396964412919715 18.458955064401007 4 -4 -4
1682 1 6.815684423642814 17.633173196109404 20.288775253885568 0 -3 1
673 1 3.4587170822843425 15.370060258966978 19.644515022526388 5 -1 -2
1404 1 5.794260565157711 15.889358818883755 19.04253746555433 -2 -2 7
677 1 1.8869976168332792 18.64211124661017 19.08318054436548 9 -2 1
1355 1 7.727620958653711 19.03946693289812 18.509849164428196 -7 -7 -2
1474 1 7.132988471925955 14.04564598082994 19.429926452483755 2 -2 -4
605 1 4.4408824926356045 16.461050026193906 23.18106468741353 7 9 6
1352 1 0.572303158551409 16.628078574365716 21.806708935063416 -1 2 -6
711 1 3.4005931899454676 17.56985112790059 25.059279924693822 2 5 0
1041 1 1.4692087980470387 18.827481570847013 24.038788221543875 -1 -2 -2
170 1 6.0167049393183865 14.564539149478314 23.44856249173626 -1 2 1
791 1 4.849011728461295 18.394652638024578 21.660670165027387 1 -1 -2
1140 1 2.6614097750565597 15.385556802620806 21.966793307118373 0 1 -2
667 1 8.109581342047012 19.547858738996197 23.225770824818703 0 -4 -3
1434 1 8.193846048024882 15.577563748744456 23.797356094934543 0 -2 2
1487 1 2.394964252905343 18.990174401860624 21.478976793847036 4 1 2
1398 1 5.059012471457284 14.359057157110627 27.28401831411503 8 6 -11
834 1 7.1327941130769545 15.700216491556068 27.68564863131234 -1 6 -2
1656 1 5.743708319933159 19.835722936684654 29.215225978093265 3 7 7
624 1 0.6757878947712344 17.194687600366596 27.24754178569224 -1 -1 -4
572 1 2.8777877178276063 15.947151914287284 26.941229371628083 -3 4 6
745 1 1.4818463771147221 19.403339386297926 28.19724568012692 -3 2 -6
538 1 1.356149371780071 13.862969570971348 26.158884068105262 -6 -4 0
1461 1 6.291236524109584 17.39546211621512 29.27717500342495 0 4 4
1136 1 8.215854828110208 16.886979868245266 25.814792635312326 -1 11 3
248 1 4.755472395658678 19.477943880754133 25.663865936121606 -3 4 5
123 1 3.8831395625591187 16.805904709186326 29.463936390328513 2 0 2
326 1 3.844829318415236 20.316571372540295 27.72576656021167 0 6 0
324 1 7.2181469778125305 19.062329283206562 25.539520104406098 3 -4 10
940 1 3.71282963778406 14.83041296641513 30.745909615160414 0 2 -5
440 1 3.258602034546619 18.422450971298783 31.316216985603493 -5 -2 -3
218 1 1.2824785412754038 19.50524410187848 30.616348885733807 1 5 -5
501 1 7.1986880096496835 15.175092805891037 32.36350339983194 5 -6 -2
1002 1 7.639768882457692 17.306641368311645 31.319338057612722 0 -3 -1
1328 1 0.7563061747777106 16.54866129391901 32.90554313294857 4 3 -5
216 1 1.4932820637780173 14.597986949656253 31.54490172640399 0 5 -5
1280 1 4.867776535937107 14.81944304793217 32.89182120326984 0 -1 -5
996 1 6.943896051597606 19.11374652201588 32.79835032879735 -1 -1 2
1190 1 5.018158077121365 19.98443300332531 31.477179620567398 -3 -4 -1
581 1 2.693070161679926 17.917980967479632 33.639984126985105 4 2 4
1621 1 5.547882285071738 26.43909127099623 0.7313255681878557 1 -9 -4
136 1 2.4119598020646023 24.562960484370983 2.185306007579045 5 -3 -6
811 1 1.2777502957087068 26.558804175876844 3.0858496307918384 1 -2 -2
168 1 3.878669843823258 23.185214020702865 3.5208094291998333 -3 -2 -1
801 1 4.49777307893399 21.41530366119154 1.8272435952929458 -1 -1 -7
1387 1 6.823163104926016 25.75481623330175 2.734345228462979 -2 -4 -1
988 1 0.5424529836280625 23.13413833960741 1.7641646216756925 -6 1 0
1615 1 0.8937311312831112 21.222574664269306 0.3523087424380472 3 -1 -1
898 1 8.309336527073233 24.01369345266063 2.0234664713418606 10 6 0
1646 1 8.348819283892638 22.571633046891243 4.023301921200738 -4 0 11
5 1 3.6734637935649945 24.997750180745108 0.10298847580889828 -1 -4 2
1229 1 2.6642574135575017 23.529750252222332 7.5839041529498825 -6 -1 2
1298 1 4.092353908270054 26.505919408327493 5.808674806378864 2 3 -1
1515 1 3.093314425504026 22.14843404362762 5.561842916050867 -6 0 3
710 1 6.554407612356541 24.67159769228869 7.755411123078039 7 3 3
816 1 5.048556553517801 20.9083832760679 6.17964151104634 4 8 -4
1184 1 2.047637225349841 25.768814182825707 6.939656885989006 3 -2 3
1227 1 6.8335379939644305 22.683281541478344 6.065584156947608 -3 -8 4
657 1 5.480946552284021 24.71658238300086 4.517779947615409 0 1 2
1345 1 1.223871974672974 20.715336666567797 5.090517942698116 2 -3 -3
1599 1 5.939948144923319 26.95343878212133 7.198282731206421 -3 0 -3
414 1 0.1609673099414537 26.115068572912673 5.271642483284933 4 -4 -2
76 1 3.5570607067761744 21.294185864925748 11.937639460541966 2 1 0
1468 1 4.707662337071968 23.746160631001782 9.057706427816521 3 7 2
1581 1 2.3752987856641354 25.596951523555113 11.260488647272306 0 -2 3
1025 1 1.6967161862433635 26.808356065984082 9.14052356792393 1 3 -6
870 1 4.68547517398984 25.102898491944117 11.085500766232096 -5 -9 -3
1542 1 7.477776981863955 21.951075095220364 11.114649260896886 8 8 -1
827 1 5.20978862849364 21.631229498442444 10.13374555041961 4 5 2
251 1 1.996235849462772 23.243023197080355 12.191383353503593 1 -5 3
273 1 8.200792154923645 26.447012260271194 11.290407144577774 2 3 2
565 1 0.666429103853235 22.45200939316793 8.492666138988977 0 -1 0
1349 1 0.08590493662396069 22.488088505225562 10.88620390616059 3 -4 4
318 1 1.8470665388513068 23.646538678839253 14.682089781236202 -7 -5 0
652 1 5.021783239290807 22.497658213435436 16.537861023809107 -4 3 -6
826 1 3.722437299482949 24.418602736535497 16.212299087353852 11 3 6
562 1 7.412057609430073 26.06785298987155 15.330806513655315 2 2 1
764 1 5.145466184366465 25.6261323976605 14.753582547557471 2 -3 2
1193 1 5.292616620700603 23.836413025792833 13.124512058710566 -1 6 -1
1015 1 4.52957942793276 21.127198067433557 14.33334093146374 2 -4 5
1416 1 0.9790384002698342 21.518177782092057 15.487793497611369 -6 0 -2
249 1 0.5271319816132137 25.65143314988606 14.579865157830655 4 1 0
231 1 7.637862473322354 23.05267327357685 13.244934417541568 3 5 1
1284 1 8.213401483434984 21.476343066867887 15.13869845228995 -1 -5 -1
1082 1 0.31740940102226034 26.917346420329384 16.65292231982148 7 -7 4
567 1 1.9702034870374021 27.02734177108156 13.191619774043243 1 3 7
1058 1 2.2168778256982278 22.432439599479327 19.387450106531936 7 -2 2
1716 1 6.011281229789104 25.7897946856383 19.014406347770475 -1 0 7
1563 1 0.3763950323572624 21.858656186771544 17.77055687128572 0 -4 1
1641 1 6.04286657477074 21.960257363531124 20.388740020496243 -3 -2 -3
1627 1 3.659508602689011 25.71006617177587 18.27591133240413 3 1 4
1459 1 2.536112772579324 24.677857643080742 20.107522957650488 1 -5 4
856 1 4.29236051721979 21.592003258277973 18.65043214318869 0 -7 1
415 1 7.736316991145418 24.94854775331387 17.423700098728677 -2 0 3
688 1 7.950663360321888 21.347024516951294 19.106010027748283 1 -2 1
1493 1 6.184786082735165 24.374937536802182 20.998016073260704 -3 -1 -5
456 1 0.2894678490879325 25.518116912396703 20.387303957351474 -2 0 1
1566 1 7.3905124565728775 22.614522078632433 17.075009503268333 8 6 -4
133 1 1.3257154355704661 23.273464488506892 24.938932973003052 -4 -3 -3
1637 1 5.0040931871598096 21.438885293044137 24.156102052555454 -4 4 5
481 1 3.1645814282181264 22.848686144959608 23.316343777777586 -4 9 1
1241 1 5.273880201751799 25.90357664764291 24.59308706876529 -3 -3 -3
1464 1 4.141281245591493 24.93358329928031 22.3395429444051 5 4 -3
22 1 2.038285899662314 21.45576718263152 21.575883428854482 8 1 -3
954 1 6.940749632876919 22.549570738732534 25.269861691135127 -2 2 -1
1165 1 0.1298239268751693 21.027906855776727 24.74688325522896 1 -7 -2
342 1 6.009374043589148 20.420616879143115 22.29564332685441 5 0 0
733 1 8.434880503947703 24.79951247110496 21.948286842150836 0 2 -3
413 1 1.984408675180598 25.839627102096813 27.899559266863633 -3 -4 -7
92 1 3.877563439361216 22.765537969217 27.753266035516397 5 1 0
368 1 1.6756497969967523 23.593663562407034 27.29563400498537 -1 2 1
1630 1 6.7857246438538175 25.326499789822634 28.1482176705191 1 -4 -1
1047 1 5.597162839658343 24.15511834346154 26.4197670227118 5 1 -4
748 1 7.517679212451439 21.471128674493844 29.131980755871712 5 -2 1
900 1 8.21204861074991 20.94837408898899 26.83734823395143 7 0 2
693 1 3.5424849103828264 26.873123984009027 26.249004541844755 1 -4 3
9 1 5.408922161502679 26.96757786418 29.359923691595014 1 -2 2
558 1 3.862916497184372 22.05784122633962 31.86260938109833 -2 0 -2
577 1 1.414765044776364 21.55683252150399 31.937943249703174 8 -2 1
1045 1 7.916241120903804 24.66057453231859 31.974959442726494 1 1 2
1388 1 7.158031730401791 26.829588269331214 32.86250739649005 3 -3 2
864 1 3.3697879473443897 25.719082473234362 30.000156901148824 -4 0 4
1051 1 2.137741354687303 26.198147972913173 32.10577255733652 2 -4 -5
1177 1 6.804749459153594 23.7122134367217 29.92849563799648 -3 7 -1
12 1 4.374800453103128 23.510543951638702 30.02707889868831 9 -3 1
1195 1 7.4865779264200265 23.04194707871419 33.77813044903077 1 -3 -2
1358 1 4.971577499299529 22.86790588797339 33.85899669942373 1 -1 -4
145 1 5.622981551996221 31.505621376220024 3.2051177657957663 1 0 3
520 1 0.8234225922836268 29.22079987439848 0.4600835780662291 1 5 3
934 1 3.2947371055056687 32.15984476857691 2.6550337908151795 -2 -3 12
464 1 1.6668706460533196 30.325232191236342 2.563111993040364 -1 -1 -2
1252 1 6.143947963594415 30.247104139282847 1.2317318169339626 -6 -3 -3
1122 1 2.9158995060123076 28.392595194210152 3.111950246753195 6 -1 1
1069 1 6.827124761272292 33.594431928211016 3.756651059399639 -9 0 3
301 1 4.422622120799507 28.48541406355542 1.1104699013364028 -3 -3 4
534 1 2.975446717698883 33.2360875096402 0.3565291847132261 11 -3 3
722 1 8.219476143468434 27.625062090495504 3.607811208354264 -2 1 0
619 1 8.298389789293335 29.315036024522993 1.8196468766843987 -1 7 4
419 1 7.415835318970473 28.36124668011431 5.823094018526577 -2 -7 3
503 1 2.3074348555659387 30.167409778889546 7.043269284055362 5 -3 7
957 1 5.8028256224579735 30.133741768239766 5.26423929683329 -2 -4 0
539 1 5.7857819950002645 31.573839292916766 7.190806558609867 3 6 5
268 1 3.4492702342863453 32.32972110567486 7.062474692315208 1 8 8
287 1 7.5696767481677485 33.19487953381078 7.493715235493462 5 0 7
770 1 3.699047567971217 28.90098927451548 5.3106857591669225 -1 5 9
1016 1 3.1586928211304786 33.45786885386768 4.87473288468767 -2 4 3
72 1 6.4819294660654645 30.339891886159332 9.164817466308197 -4 -1 -3
111 1 4.340666440592992 31.004482874204268 12.310547130473616 -5 -6 1
313 1 5.772857512071091 32.148874534408144 10.7565590291309 7 -5 1
1068 1 2.3830143049453554 30.324691609617645 11.092558816269916 8 -2 -6
1079 1 7.934123486044757 32.89565600102036 11.519807138307417 4 -4 -2
917 1 2.8669224108945737 28.943017163256744 9.102943478425393 6 5 -6
1038 1 1.472108096043957 32.44781325084611 10.478156942686722 -4 -5 1
1583 1 5.228411686836694 28.301670056335716 9.077462764048047 -10 3 0
252 1 0.7676885197173726 33.69451438530377 12.456455650734332 4 2 5
1293 1 2.8293126964227033 33.792041532781056 8.929623852469334 2 -4 -4
880 1 0.9494296151238344 29.086302028999533 12.615069669782468 1 7 2
1420 1 5.854910264973776 27.172950463623184 11.069442139305169 -3 -6 3
1402 1 6.171259906340876 32.70522352272118 15.377550003320003 -4 -3 -3
1282 1 2.495914373601906 31.189303163439902 15.806688655888346 0 -8 9
1295 1 7.883634472823142 31.868126314885533 13.801302821929466 2 -6 0
836 1 3.780633030603786 29.079896983904 16.283113063132006 0 -1 2
118 1 7.6682799130566766 28.423148949766986 15.697472945941778 4 -4 3
101 1 3.942929206472433 32.41839208072373 14.313264815483882 7 1 0
1291 1 7.540926091984954 29.50984280001904 13.52839542884195 -1 -4 -5
1334 1 4.019481132484194 27.68135415954577 14.300468359775424 3 3 -1
27 1 0.47467754752502306 30.396162050796086 14.635421017376615 2 3 -1
1693 1 5.376463305092689 28.870945805227663 12.77558780123995 2 6 5
1314 1 2.402758952362387 27.706558572923214 17.636838516487476 2 -2 4
1390 1 1.5001151098001562 29.24095344868305 19.254763569240957 3 -5 -5
1085 1 6.311608018250145 28.155765904865667 19.493307835970135 2 0 7
642 1 4.963351074966024 32.44399538322332 19.39203422855545 6 -1 6
1531 1 6.450939795510581 31.662875620225297 17.627206736122275 -5 -2 -1
359 1 1.7836593746615352 32.93521715468963 17.522743967968932 -2 -1 1
233 1 3.429968077992619 30.664069016830837 20.221265186115904 1 0 -9
797 1 6.019996042507719 29.299707134408322 17.312796003294974 -2 6 -5
144 1 0.3117408077679434 32.19078600278916 19.40702476935887 4 -5 2
299 1 1.0576481269307152 27.736615329748982 21.0768595372635 -6 0 0
634 1 2.4505046567532855 30.378509028166324 25.05043315478495 1 -4 7
497 1 5.152465090881582 33.255392555324704 25.058831819600456 3 1 -2
585 1 6.134254609080239 29.810004982051762 23.057737150756633 -2 -2 5
1409 1 2.411402496127667 28.010853333287862 24.56494227698644 4 8 5
515 1 4.848840597507059 30.83332044927188 24.833662320919334 -3 -3 0
600 1 0.6570832782629688 30.97064587014263 23.290668170156593 -4 -2 -1
1171 1 7.642211937716711 31.65495346293753 22.365898147700623 -5 2 1
1509 1 7.119273206133222 27.68542176002777 23.942869582474998 2 1 -6
56 1 3.1653117080608935 27.377264877042766 22.28308790214104 -3 -1 -2
615 1 1.8102734436018213 32.05138459939098 21.439655089256522 3 0 -5
1032 1 0.06317771930403629 27.413616495459014 24.545569749472058 7 0 2
385 1 4.770383865160128 28.961761351378208 21.269223529575363 -2 -5 0
185 1 6.3019481089149725 33.354715326634974 21.23199321949203 1 -4 4
1222 1 4.438997570650053 28.419943408930855 27.8341909041188 -1 2 6
1056 1 7.160057846209337 31.469213090439716 27.68733155516053 1 0 -8
178 1 1.9144943465293391 30.948136014458893 27.434669220713328 2 -1 3
26 1 6.118909703919892 29.67000339308342 26.61940243998745 10 4 -1
1529 1 7.352245387303315 33.32717527253373 26.10541522054017 2 -7 -3
244 1 3.2685575136290925 32.75529986862092 28.501351933630534 0 -3 -4
1225 1 2.5868754352700107 29.39006561317363 29.225839958264547 3 5 2
297 1 5.607051285650268 32.17057529591925 29.37445521892239 -4 -2 3
787 1 8.176083478234982 28.26012719559315 26.06208933913096 7 4 5
886 1 2.776389149792317 28.456270843982914 33.18563427968146 0 1 -1
1614 1 5.568050888450296 30.572041005175432 31.255518862288906 7 3 3
1575 1 6.300630978858944 31.724233724771615 33.21335423105114 1 -3 5
106 1 2.0356817234382336 32.071147120238905 32.343857728488814 -1 -5 0
778 1 3.2735688100630944 30.16162274294194 31.51147053744735 1 1 -3
863 1 6.613903770806949 28.336727419608728 30.941345021643254 -3 0 0
15 1 0.7361238703279898 28.13031235150703 30.296190476020595 -2 2 -2
1256 1 1.8334606272773952 33.5349675973212 30.38430599414633 -2 3 0
55 1 5.067625095483062 33.87974338346291 33.342746133210575 1 2 -1
724 1 11.981650153407845 4.483219991122179 1.2657600777782534 -3 0 -4
1565 1 12.52293429181321 4.848206151554761 3.593428443965929 -4 4 -2
1410 1 15.348764419898222 1.9557116680890565 3.161713355729128 2 5 -1
1316 1 14.805234559242939 1.8374051926847752 0.8075583626717561 -10 0 -2