LAMMPS DATA file

192 atoms
0 bonds
0 angles
0 dihedrals
0 impropers

2 atom types
0 bond types
0 angle types

0.0 12.990503 xlo xhi
0.0 11.250148 ylo yhi
0.0 15.845291 zlo zhi

Masses

1 69.723
2 14.0067

Atoms

1 1 1.705523 1.028815 2.517183 0 0 0
2 1 1.731244 0.967288 7.789545 0 0 0
3 1 1.566265 0.948061 13.343953 0 0 0
4 1 0.120784 3.673061 2.784493 0 0 0
5 1 0.118779 3.746749 8.012330 0 0 0
6 1 12.897464 3.732462 13.330643 0 0 0
7 1 4.947303 1.040897 2.684826 0 0 0
8 1 3.126944 1.953588 5.413860 0 0 0
9 1 4.917815 0.995503 7.994266 0 0 0
10 1 3.219566 1.910050 10.453772 0 0 0
11 1 4.924960 0.832173 13.128299 0 0 0
12 1 3.129672 1.784386 0.096656 0 0 0
13 1 3.298289 3.708949 2.778155 0 0 0
14 1 1.502871 4.673762 5.238770 0 0 0
15 1 3.316605 3.816500 7.817908 0 0 0
16 1 1.621215 4.675337 10.604461 0 0 0
17 1 3.302056 3.807388 13.127982 0 0 0
18 1 1.670449 4.722475 15.732947 0 0 0
19 1 1.524825 6.562211 2.781165 0 0 0
20 1 1.582373 6.581787 7.829633 0 0 0
21 1 1.689155 6.507536 13.200870 0 0 0
22 1 0.051724 9.463062 2.781007 0 0 0
23 1 0.012269 9.293860 7.806024 0 0 0
24 1 12.927503 9.451812 13.121010 0 0 0
25 1 8.200775 0.879807 2.771500 0 0 0
26 1 6.456280 1.806774 5.197414 0 0 0
27 1 8.149202 0.931501 7.870197 0 0 0
28 1 6.581249 1.894187 10.573879 0 0 0
29 1 8.227405 0.889324 13.280413 0 0 0
30 1 6.561113 1.848174 0.015845 0 0 0
31 1 6.385092 3.649661 2.645213 0 0 0
32 1 4.943926 4.785251 5.159068 0 0 0
33 1 6.513179 3.743149 7.762449 0 0 0
34 1 4.829090 4.611548 10.651363 0 0 0
35 1 6.446148 3.756424 13.092964 0 0 0
36 1 4.897939 4.634274 0.042782 0 0 0
37 1 4.920543 6.618462 2.619702 0 0 0
38 1 3.139545 7.439161 5.407205 0 0 0
39 1 4.781155 6.635900 7.929300 0 0 0
40 1 3.376492 7.405185 10.539812 0 0 0
41 1 4.769203 6.666500 13.041942 0 0 0
42 1 3.319074 7.571462 0.110917 0 0 0
43 1 3.139675 9.352586 2.559331 0 0 0
44 1 1.701756 10.297261 5.406413 0 0 0
45 1 3.165006 9.321985 7.804756 0 0 0
46 1 1.529242 10.395699 10.583228 0 0 0
47 1 3.260616 9.295210 13.310836 0 0 0
48 1 1.655510 10.279148 15.844023 0 0 0
49 1 11.341229 0.842096 2.552993 0 0 0
50 1 9.645059 1.803961 5.193928 0 0 0
51 1 11.345256 0.836179 8.044812 0 0 0
52 1 9.858493 1.872925 10.554706 0 0 0
53 1 11.324471 1.027521 13.157454 0 0 0
54 1 9.641811 1.938063 15.804885 0 0 0
55 1 9.675717 3.728412 2.507517 0 0 0
56 1 8.023454 4.787051 5.420832 0 0 0
57 1 9.762363 3.651011 7.833119 0 0 0
58 1 8.080872 4.759825 10.404493 0 0 0
59 1 9.624144 3.675536 13.246188 0 0 0
60 1 8.179211 4.720787 15.824216 0 0 0
61 1 8.131276 6.516761 2.712872 0 0 0
62 1 6.414451 7.542099 5.176023 0 0 0
63 1 8.084899 6.590899 8.005992 0 0 0
64 1 6.386391 7.596663 10.645342 0 0 0
65 1 8.115687 6.548149 13.182014 0 0 0
66 1 6.444978 7.502049 15.843231 0 0 0
67 1 6.577741 9.441462 2.681182 0 0 0
68 1 4.839872 10.382762 5.286623 0 0 0
69 1 6.456410 9.473862 8.036256 0 0 0
70 1 4.884429 10.340236 10.585605 0 0 0
71 1 6.419257 9.330423 13.189778 0 0 0
72 1 4.801420 10.390074 15.743088 0 0 0
73 1 12.919315 1.800924 5.189966 0 0 0
74 1 12.973745 1.832537 10.692244 0 0 0
75 1 12.972317 1.804074 0.123593 0 0 0
76 1 11.491269 4.673762 5.153047 0 0 0
77 1 11.303816 4.667011 10.588140 0 0 0
78 1 11.304856 4.710662 0.061797 0 0 0
79 1 11.294463 6.476485 2.570898 0 0 0
80 1 9.695852 7.483036 5.278700 0 0 0
81 1 11.258999 6.509111 8.012488 0 0 0
82 1 9.620507 7.596550 10.631081 0 0 0
83 1 11.363703 6.580212 13.115622 0 0 0
84 1 9.732225 7.604313 0.009507 0 0 0
85 1 9.748333 9.314785 2.631903 0 0 0
86 1 8.151281 10.352949 5.243207 0 0 0
87 1 9.708453 9.484887 7.770689 0 0 0
88 1 8.219091 10.405600 10.651838 0 0 0
89 1 9.638564 9.321535 13.146679 0 0 0
90 1 8.165700 10.230885 0.064966 0 0 0
91 1 12.888398 7.534674 5.274422 0 0 0
92 1 0.072747 7.548512 10.686064 0 0 0
93 1 0.101326 7.462786 0.057043 0 0 0
94 1 11.288228 10.207034 5.353648 0 0 0
95 1 11.366690 10.308173 10.686381 0 0 0
96 1 11.395269 10.339111 0.107748 0 0 0
97 2 1.703185 0.954778 4.526524 0 0 0
98 2 1.556262 1.024472 9.759431 0 0 0
99 2 1.621215 0.862796 15.342203 0 0 0
100 2 0.055262 3.750124 4.617793 0 0 0
101 2 12.876089 3.790962 9.763710 0 0 0
102 2 12.879162 3.754962 15.062692 0 0 0
103 2 4.954058 1.008958 4.697495 0 0 0
104 2 3.156692 1.910950 1.992070 0 0 0
105 2 4.994329 0.971034 10.003924 0 0 0
106 2 3.235675 1.859762 7.371071 0 0 0
107 2 4.763228 0.854978 15.087093 0 0 0
108 2 3.219307 1.949538 12.645809 0 0 0
109 2 3.133439 3.727399 4.635540 0 0 0
110 2 1.602249 4.722812 2.026771 0 0 0
111 2 3.193585 3.734712 9.755312 0 0 0
112 2 1.749561 4.612673 7.143057 0 0 0
113 2 3.214500 3.682174 15.187236 0 0 0
114 2 1.582113 4.789188 12.682887 0 0 0
115 2 1.507548 6.616100 4.553937 0 0 0
116 2 1.603808 6.573349 10.049083 0 0 0
117 2 1.602508 6.671225 15.127657 0 0 0
118 2 0.052249 9.412549 4.639501 0 0 0
119 2 0.051471 9.412549 9.806809 0 0 0
120 2 12.893859 9.487363 15.086301 0 0 0
121 2 7.997603 0.951279 4.748041 0 0 0
122 2 6.539160 1.805424 1.944534 0 0 0
123 2 8.108802 1.045881 9.799837 0 0 0
124 2 6.587614 1.907575 7.228622 0 0 0
125 2 8.038783 0.921365 15.184859 0 0 0
126 2 6.396654 1.895200 12.462955 0 0 0
127 2 6.465244 3.768687 4.548391 0 0 0
128 2 4.817009 4.713925 1.911734 0 0 0
129 2 6.579560 3.858688 9.981741 0 0 0
130 2 4.830908 4.706500 7.143532 0 0 0
131 2 6.600864 3.835513 15.291181 0 0 0
132 2 4.809214 4.708750 12.398306 0 0 0
133 2 4.852083 6.520473 4.519711 0 0 0
134 2 3.164227 7.482699 1.857543 0 0 0
135 2 4.897030 6.556024 9.970808 0 0 0
136 2 3.299588 7.531299 7.120081 0 0 0
137 2 4.759461 6.522048 15.200387 0 0 0
138 2 3.287766 7.479324 12.651038 0 0 0
139 2 3.304394 9.480612 4.636966 0 0 0
140 2 1.578346 10.223910 2.021384 0 0 0
141 2 3.320113 9.357873 9.779080 0 0 0
142 2 1.563147 10.234710 7.198516 0 0 0
143 2 3.232037 9.381274 15.177095 0 0 0
144 2 1.721372 10.316723 12.690335 0 0 0
145 2 11.402414 1.040492 4.544905 0 0 0
146 2 9.788604 1.827587 2.040557 0 0 0
147 2 11.417353 0.840307 9.831052 0 0 0
148 2 9.671170 1.912750 7.377092 0 0 0
149 2 11.326290 1.000633 15.246180 0 0 0
150 2 9.614661 1.898013 12.513818 0 0 0
151 2 9.850958 3.637848 4.615099 0 0 0
152 2 8.099449 4.678824 2.071772 0 0 0
153 2 9.696761 3.814138 9.899662 0 0 0
154 2 7.998513 4.614586 7.338113 0 0 0
155 2 9.735992 3.671936 15.140175 0 0 0
156 2 8.146994 4.618186 12.625211 0 0 0
157 2 8.052293 6.656488 4.553778 0 0 0
158 2 6.564231 7.430048 1.918865 0 0 0
159 2 8.012802 6.579762 9.966846 0 0 0
160 2 6.507333 7.483374 7.313711 0 0 0
161 2 8.157387 6.602824 15.233662 0 0 0
162 2 6.610867 7.434660 12.616020 0 0 0
163 2 6.426662 9.289472 4.661051 0 0 0
164 2 4.858448 10.303336 2.037387 0 0 0
165 2 6.565530 9.341448 9.960191 0 0 0
166 2 4.849615 10.389624 7.373448 0 0 0
167 2 6.431988 9.400624 15.216549 0 0 0
168 2 4.881961 10.395924 12.475156 0 0 0
169 2 12.943218 1.789336 2.125487 0 0 0
170 2 0.037672 1.870450 7.312126 0 0 0
171 2 0.011691 1.908138 12.563572 0 0 0
172 2 11.424108 4.692662 2.142600 0 0 0
173 2 11.293554 4.598836 7.144166 0 0 0
174 2 11.253283 4.666111 12.533308 0 0 0
175 2 11.331876 6.621837 4.667547 0 0 0
176 2 9.813546 7.597450 2.135945 0 0 0
177 2 11.286669 6.481323 9.970966 0 0 0
178 2 9.637395 7.505761 7.277584 0 0 0
179 2 11.460482 6.559174 15.156813 0 0 0
180 2 9.787435 7.554362 12.555967 0 0 0
181 2 9.703256 9.296335 4.654237 0 0 0
182 2 8.057230 10.210185 2.066860 0 0 0
183 2 9.676106 9.362148 9.968272 0 0 0
184 2 8.082431 10.365774 7.234484 0 0 0
185 2 9.790553 9.420987 15.172341 0 0 0
186 2 7.994226 10.274535 12.525702 0 0 0
187 2 12.930877 7.431960 2.088092 0 0 0
188 2 12.972317 7.587325 7.233375 0 0 0
189 2 0.070149 7.476849 12.647394 0 0 0
190 2 11.432942 10.284998 1.896206 0 0 0
191 2 11.442165 10.413700 7.213252 0 0 0
192 2 11.411248 10.298836 12.655317 0 0 0
