LAMMPS DATA file

64 atoms

1 atom types

0.000000 10.862000 xlo xhi
0.000000 10.862000 ylo yhi
0.000000 10.862000 zlo zhi

Masses

1 28.0855

Atoms

1 1 6.837430 1.397700 1.345390
2 1 9.477570 4.127900 1.403840
3 1 9.534230 1.338770 4.085290
4 1 1.365410 1.359350 1.323120
5 1 4.055960 4.039370 1.357440
6 1 6.783880 6.747630 1.352520
7 1 9.494820 9.459720 1.304030
8 1 4.043350 1.393780 4.057890
9 1 6.770900 4.051740 4.130530
10 1 9.488520 6.840130 4.067270
11 1 6.757190 1.296820 6.780780
12 1 9.568350 4.040880 6.746180
13 1 9.511540 1.421750 9.503240
14 1 1.395100 6.799310 1.408250
15 1 4.100610 9.541330 1.405600
16 1 1.412300 4.076880 4.071540
17 1 4.034440 6.751100 4.075150
18 1 6.779460 9.540660 4.022600
19 1 1.352150 1.315140 6.794820
20 1 4.084500 4.076620 6.823910
21 1 6.764880 6.816050 6.772800
22 1 9.507270 9.485890 6.798060
23 1 4.088880 1.351190 9.571210
24 1 6.818800 4.065840 9.481670
25 1 9.487550 6.776190 9.511690
26 1 1.321980 9.512270 4.033600
27 1 1.371850 6.810970 6.785080
28 1 4.042900 9.523340 6.768070
29 1 1.311450 4.077370 9.483790
30 1 4.064240 6.807430 9.504260
31 1 6.788750 9.533420 9.510910
32 1 1.363890 9.445040 9.557150
33 1 5.473270 0.017699 -0.009810
34 1 8.117410 2.811920 -0.002982
35 1 8.178260 -0.019879 2.694140
36 1 -0.002454 -0.033094 -0.009511
37 1 2.650360 2.720410 -0.045325
38 1 5.418950 5.381570 -0.033150
39 1 8.136900 8.094280 0.009056
40 1 2.692220 0.023806 2.705170
41 1 5.429060 2.728830 2.723040
42 1 8.106510 5.421980 2.768020
43 1 5.404570 0.041805 5.405560
44 1 8.152320 2.678460 5.480980
45 1 8.129670 0.013228 8.170080
46 1 -0.016955 5.421940 0.037540
47 1 2.755460 8.141370 0.002271
48 1 -0.006955 2.771680 2.675510
49 1 2.735140 5.394520 2.700210
50 1 5.472200 8.105560 2.695240
51 1 0.018150 -0.020987 5.436660
52 1 2.744430 2.717370 5.395250
53 1 5.432390 5.454860 5.476240
54 1 8.158450 8.118700 5.422210
55 1 2.724210 0.023277 8.199900
56 1 5.447630 2.715900 8.158040
57 1 8.170540 5.429840 8.125250
58 1 -0.014458 8.145370 2.688620
59 1 0.023884 5.462400 5.426880
60 1 2.712640 8.136250 5.434020
61 1 -0.030351 2.693220 8.142630
62 1 2.710820 5.432870 8.099630
63 1 5.424770 8.171390 8.126630
64 1 0.006773 8.117870 8.200340
