LAMMPS DATA file

64 atoms

1 atom types

0.000000 10.862000 xlo xhi
0.000000 10.862000 ylo yhi
0.000000 10.862000 zlo zhi

Masses

1 28.0855

Atoms

1 1 6.722840 1.319450 1.341430
2 1 9.452060 4.058450 1.282080
3 1 9.478890 1.395960 4.091290
4 1 1.420530 1.325190 1.372630
5 1 4.055390 4.087270 1.384840
6 1 6.871320 6.825700 1.326420
7 1 9.550930 9.517790 1.400810
8 1 4.095910 1.353770 4.084240
9 1 6.790020 4.108180 4.021040
10 1 9.541290 6.756780 4.031520
11 1 6.759080 1.370580 6.826020
12 1 9.498490 4.069820 6.845120
13 1 9.484810 1.353010 9.532920
14 1 1.336490 6.808180 1.366380
15 1 4.053970 9.510560 1.341390
16 1 1.340700 4.094820 4.067180
17 1 4.061240 6.776760 4.056420
18 1 6.785770 9.503240 4.138020
19 1 1.317970 1.398290 6.767610
20 1 4.106110 4.088200 6.718880
21 1 6.804440 6.743220 6.807400
22 1 9.475100 9.491170 6.764680
23 1 4.079690 1.384900 9.492620
24 1 6.755700 4.078070 9.540680
25 1 9.526480 6.810890 9.529870
26 1 1.352810 9.481260 4.123360
27 1 1.367910 6.760800 6.817550
28 1 4.094260 9.492520 6.821350
29 1 1.351150 4.038340 9.462300
30 1 4.091870 6.755850 9.479380
31 1 6.823390 9.500570 9.475780
32 1 1.341730 9.516120 9.467720
33 1 5.406020 -0.034530 -0.036083
34 1 8.119250 2.693630 -0.000590
35 1 8.152620 -0.009439 2.704740
36 1 0.037219 0.003200 0.008070
37 1 2.741440 2.720700 0.033826
38 1 5.453830 5.451670 0.050152
39 1 8.205180 8.255450 -0.004092
40 1 2.736810 -0.000887 2.814210
41 1 5.409150 2.673760 2.731260
42 1 8.201320 5.460000 2.667210
43 1 5.375420 0.018226 5.453040
44 1 8.086420 2.744010 5.457050
45 1 8.160970 0.027382 8.120860
46 1 0.007909 5.438840 -0.010005
47 1 2.689060 8.169700 0.005538
48 1 0.033501 2.701870 2.669880
49 1 2.683620 5.425620 2.729270
50 1 5.443120 8.140700 2.710410
51 1 -0.027289 -0.017982 5.408920
52 1 2.729830 2.719020 5.429200
53 1 5.417880 5.441890 5.377080
54 1 8.120050 8.106160 5.392110
55 1 2.707280 -0.005447 8.145680
56 1 5.434800 2.700050 8.156130
57 1 8.157470 5.404730 8.177180
58 1 -0.005074 8.182490 2.738320
59 1 -0.008758 5.447490 5.424010
60 1 2.679580 8.152430 5.461190
61 1 0.001203 2.677210 8.149950
62 1 2.749380 5.411780 8.135820
63 1 5.450320 8.132680 8.149500
64 1 -0.001863 8.127860 8.107250
