LAMMPS DATA file

192 atoms
0 bonds
0 angles
0 dihedrals
0 impropers

2 atom types
0 bond types
0 angle types

0.0 12.990503 xlo xhi
0.0 11.250148 ylo yhi
0.0 15.845291 zlo zhi

Masses

1 69.723
2 14.0067

Atoms

1 1 1.520408 0.857914 2.689738 0 0 0
2 1 1.660186 0.908809 7.810302 0 0 0
3 1 1.595104 1.005009 13.167120 0 0 0
4 1 0.066284 3.703999 2.679756 0 0 0
5 1 0.100059 3.684761 7.910920 0 0 0
6 1 12.889955 3.667323 13.060798 0 0 0
7 1 4.762189 0.966073 2.607343 0 0 0
8 1 3.283610 1.955276 5.359828 0 0 0
9 1 4.995108 1.000858 8.055270 0 0 0
10 1 3.309720 1.819599 10.627595 0 0 0
11 1 4.921712 0.999013 13.277244 0 0 0
12 1 3.200470 1.877425 0.080811 0 0 0
13 1 3.266592 3.852163 2.531285 0 0 0
14 1 1.729556 4.744300 5.208505 0 0 0
15 1 3.280752 3.741687 7.799686 0 0 0
16 1 1.636674 4.793238 10.539653 0 0 0
17 1 3.271269 3.662486 13.103738 0 0 0
18 1 1.536257 4.583310 15.767807 0 0 0
19 1 1.553664 6.530711 2.519560 0 0 0
20 1 1.753328 6.565587 7.881606 0 0 0
21 1 1.558860 6.532174 13.166961 0 0 0
22 1 0.110758 9.374074 2.669931 0 0 0
23 1 12.861849 9.394886 8.005041 0 0 0
24 1 0.040840 9.381499 13.302121 0 0 0
25 1 8.239227 0.895602 2.729510 0 0 0
26 1 6.439392 1.765823 5.147660 0 0 0
27 1 8.074507 0.893757 7.764351 0 0 0
28 1 6.407436 1.862462 10.642648 0 0 0
29 1 8.166220 0.985783 13.186134 0 0 0
30 1 6.604242 1.985089 0.131516 0 0 0
31 1 6.485249 3.841138 2.599420 0 0 0
32 1 4.898199 4.701099 5.385814 0 0 0
33 1 6.439392 3.786800 7.949582 0 0 0
34 1 4.912099 4.644849 10.504635 0 0 0
35 1 6.414191 3.660236 13.131309 0 0 0
36 1 4.833766 4.695587 0.150530 0 0 0
37 1 4.748808 6.609687 2.763736 0 0 0
38 1 3.342716 7.414410 5.420515 0 0 0
39 1 4.856110 6.647150 8.032770 0 0 0
40 1 3.209953 7.529612 10.673546 0 0 0
41 1 4.746990 6.467373 13.159831 0 0 0
42 1 3.156432 7.395285 0.083980 0 0 0
43 1 3.202809 9.446524 2.531919 0 0 0
44 1 1.669539 10.397162 5.357768 0 0 0
45 1 3.177347 9.343361 7.873842 0 0 0
46 1 1.563407 10.275998 10.427152 0 0 0
47 1 3.235025 9.364961 13.049706 0 0 0
48 1 1.659407 10.213560 15.735007 0 0 0
49 1 11.414625 0.949783 2.478837 0 0 0
50 1 9.687798 1.847274 5.164297 0 0 0
51 1 11.256141 0.928677 7.876060 0 0 0
52 1 9.827186 1.883500 10.658652 0 0 0
53 1 11.356428 0.828168 13.042100 0 0 0
54 1 9.656101 1.844912 0.063381 0 0 0
55 1 9.654412 3.700286 2.681340 0 0 0
56 1 8.063725 4.647549 5.167149 0 0 0
57 1 9.713649 3.839113 8.040059 0 0 0
58 1 8.091395 4.727087 10.479441 0 0 0
59 1 9.859792 3.778137 13.106115 0 0 0
60 1 8.017609 4.702337 15.768282 0 0 0
61 1 8.007606 6.485710 2.492623 0 0 0
62 1 6.542277 7.563475 5.373613 0 0 0
63 1 8.058009 6.651650 7.951325 0 0 0
64 1 6.369114 7.465036 10.568650 0 0 0
65 1 8.152320 6.550624 13.297526 0 0 0
66 1 6.403019 7.606900 0.099825 0 0 0
67 1 6.453682 9.401299 2.573275 0 0 0
68 1 4.764657 10.317511 5.379318 0 0 0
69 1 6.563841 9.475887 7.864335 0 0 0
70 1 4.842730 10.234035 10.505269 0 0 0
71 1 6.509151 9.386449 13.091379 0 0 0
72 1 4.771931 10.289836 0.099825 0 0 0
73 1 12.908663 1.875175 5.157801 0 0 0
74 1 0.094831 1.935025 10.578474 0 0 0
75 1 12.961794 1.872812 0.117255 0 0 0
76 1 11.471913 4.687149 5.285514 0 0 0
77 1 11.473083 4.705262 10.645500 0 0 0
78 1 11.408650 4.680737 15.751011 0 0 0
79 1 11.393321 6.491561 2.539525 0 0 0
80 1 9.836929 7.415873 5.322433 0 0 0
81 1 11.350452 6.587974 7.992365 0 0 0
82 1 9.691825 7.397310 10.664356 0 0 0
83 1 11.332785 6.598887 13.324305 0 0 0
84 1 9.684160 7.612075 0.099825 0 0 0
85 1 9.818612 9.410411 2.649174 0 0 0
86 1 8.089576 10.385124 5.306429 0 0 0
87 1 9.816014 9.484887 8.008527 0 0 0
88 1 8.210777 10.309411 10.676557 0 0 0
89 1 9.699749 9.308823 13.197067 0 0 0
90 1 7.997214 10.386362 15.765113 0 0 0
91 1 0.045467 7.566175 5.333842 0 0 0
92 1 0.038972 7.440961 10.550904 0 0 0
93 1 0.113017 7.441861 15.747684 0 0 0
94 1 11.307584 10.374662 5.222925 0 0 0
95 1 11.393451 10.241572 10.427310 0 0 0
96 1 11.317067 10.252035 0.123593 0 0 0
97 2 1.737350 0.832185 4.656772 0 0 0
98 2 1.505340 0.920611 9.915666 0 0 0
99 2 1.712278 0.965645 15.112921 0 0 0
100 2 0.105144 3.810200 4.646948 0 0 0
101 2 0.103186 3.720312 9.857355 0 0 0
102 2 0.030881 3.657086 15.151108 0 0 0
103 2 4.790248 1.007383 4.697812 0 0 0
104 2 3.292963 1.968213 2.087934 0 0 0
105 2 4.884039 0.828506 9.780347 0 0 0
106 2 3.251523 1.976876 7.376617 0 0 0
107 2 4.984456 1.044025 15.150158 0 0 0
108 2 3.201120 1.938738 12.458518 0 0 0
109 2 3.366879 3.846876 4.584518 0 0 0
110 2 1.583542 4.730912 2.054817 0 0 0
111 2 3.325699 3.771162 9.781139 0 0 0
112 2 1.639272 4.584773 7.349521 0 0 0
113 2 3.289066 3.772400 15.104048 0 0 0
114 2 1.679282 4.738112 12.500350 0 0 0
115 2 1.502482 6.639950 4.712706 0 0 0
116 2 1.626281 6.609125 10.001072 0 0 0
117 2 1.579775 6.655700 15.214806 0 0 0
118 2 12.935401 9.322660 4.750735 0 0 0
119 2 12.955716 9.296335 10.050192 0 0 0
120 2 0.039190 9.483650 15.093590 0 0 0
121 2 8.204412 0.936114 4.655822 0 0 0
122 2 6.377038 1.889575 2.028514 0 0 0
123 2 8.118545 0.838429 9.913606 0 0 0
124 2 6.379117 1.952351 7.297865 0 0 0
125 2 8.168688 0.970640 15.229701 0 0 0
126 2 6.613205 1.802386 12.541706 0 0 0
127 2 6.584237 3.749337 4.710171 0 0 0
128 2 4.788299 4.730687 2.117406 0 0 0
129 2 6.407566 3.733924 9.763551 0 0 0
130 2 4.800121 4.724950 7.385648 0 0 0
131 2 6.454851 3.643698 15.318910 0 0 0
132 2 4.863904 4.779963 12.495121 0 0 0
133 2 4.921062 6.453985 4.630945 0 0 0
134 2 3.203978 7.463236 2.129766 0 0 0
135 2 4.936521 6.525198 9.950842 0 0 0
136 2 3.225672 7.517349 7.413536 0 0 0
137 2 4.901577 6.483910 15.297677 0 0 0
138 2 3.306343 7.412048 12.442356 0 0 0
139 2 3.194884 9.357873 4.636015 0 0 0
140 2 1.565356 10.386474 2.078902 0 0 0
141 2 3.188909 9.401186 9.782565 0 0 0
142 2 1.667981 10.278248 7.321633 0 0 0
143 2 3.194495 9.415699 15.156813 0 0 0
144 2 1.595753 10.246748 12.620774 0 0 0
145 2 11.449700 1.033472 4.631578 0 0 0
146 2 9.663116 1.898125 1.890502 0 0 0
147 2 11.343437 1.016957 9.886352 0 0 0
148 2 9.853427 1.846487 7.330665 0 0 0
149 2 11.389684 0.847710 15.162834 0 0 0
150 2 9.853167 1.775048 12.512868 0 0 0
151 2 9.675457 3.688811 4.581824 0 0 0
152 2 8.229224 4.688162 2.082230 0 0 0
153 2 9.704036 3.740787 10.051777 0 0 0
154 2 8.023714 4.590848 7.333200 0 0 0
155 2 9.854985 3.662036 15.238574 0 0 0
156 2 8.027092 4.731250 12.589400 0 0 0
157 2 8.000461 6.629600 4.781158 0 0 0
158 2 6.478754 7.465148 1.843124 0 0 0
159 2 8.047617 6.580774 9.940860 0 0 0
160 2 6.430949 7.534787 7.128479 0 0 0
161 2 8.233511 6.470860 15.137957 0 0 0
162 2 6.534483 7.501036 12.559453 0 0 0
163 2 6.463815 9.435612 4.558056 0 0 0
164 2 4.910280 10.407625 1.932492 0 0 0
165 2 6.576702 9.439887 9.789696 0 0 0
166 2 4.782454 10.293548 7.327338 0 0 0
167 2 6.536172 9.415587 15.035121 0 0 0
168 2 4.774919 10.371962 12.658010 0 0 0
169 2 0.063653 1.975076 2.119149 0 0 0
170 2 12.918536 1.877200 7.359028 0 0 0
171 2 0.005196 1.901388 12.568168 0 0 0
172 2 11.426706 4.589273 1.983830 0 0 0
173 2 11.296542 4.650924 7.284239 0 0 0
174 2 11.429954 4.667799 12.552164 0 0 0
175 2 11.270301 6.498423 4.561384 0 0 0
176 2 9.729887 7.441636 1.911100 0 0 0
177 2 11.468406 6.582012 10.047816 0 0 0
178 2 9.773535 7.443998 7.141948 0 0 0
179 2 11.378771 6.549724 15.251251 0 0 0
180 2 9.810298 7.477524 12.571020 0 0 0
181 2 9.666363 9.474875 4.631103 0 0 0
182 2 8.060867 10.251698 2.129607 0 0 0
183 2 9.792111 9.421887 9.958448 0 0 0
184 2 8.191552 10.330786 7.268869 0 0 0
185 2 9.841216 9.351011 15.108960 0 0 0
186 2 8.062296 10.403687 12.613960 0 0 0
187 2 0.092233 7.472798 2.028356 0 0 0
188 2 12.868782 7.594638 7.258252 0 0 0
189 2 0.005196 7.559987 12.497814 0 0 0
190 2 11.399426 10.273635 1.926312 0 0 0
191 2 11.404623 10.297711 7.142106 0 0 0
192 2 11.298100 10.418762 12.612693 0 0 0
