LAMMPS DATA file

192 atoms
0 bonds
0 angles
0 dihedrals
0 impropers

2 atom types
0 bond types
0 angle types

0.0 12.990503 xlo xhi
0.0 11.250148 ylo yhi
0.0 15.845291 zlo zhi

Masses

1 69.723
2 14.0067

Atoms

1 1 1.546000 0.889707 2.569631 0 0 0
2 1 1.605626 0.932581 8.054003 0 0 0
3 1 1.711109 0.890258 13.344111 0 0 0
4 1 0.057952 3.832138 2.642836 0 0 0
5 1 12.874310 3.853513 7.971766 0 0 0
6 1 12.877609 3.857901 13.133844 0 0 0
7 1 4.988353 0.864034 2.477253 0 0 0
8 1 3.345964 1.953926 5.224509 0 0 0
9 1 4.767125 0.966343 7.885567 0 0 0
10 1 3.358825 1.960676 10.595746 0 0 0
11 1 4.973804 0.872044 13.122277 0 0 0
12 1 3.118760 1.782923 0.025352 0 0 0
13 1 3.195534 3.812000 2.680548 0 0 0
14 1 1.540544 4.638774 5.160811 0 0 0
15 1 3.264124 3.670023 8.030076 0 0 0
16 1 1.501832 4.766350 10.473420 0 0 0
17 1 3.313877 3.650223 13.264727 0 0 0
18 1 1.541713 4.798863 15.845132 0 0 0
19 1 1.633686 6.511136 2.596885 0 0 0
20 1 1.626931 6.566037 7.907275 0 0 0
21 1 1.533919 6.498536 13.244920 0 0 0
22 1 0.027578 9.303648 2.751852 0 0 0
23 1 0.007203 9.481850 7.849123 0 0 0
24 1 0.116677 9.399386 13.286593 0 0 0
25 1 8.005657 0.958018 2.762151 0 0 0
26 1 6.497850 1.882375 5.370920 0 0 0
27 1 8.159335 0.929195 7.935322 0 0 0
28 1 6.558385 1.878212 10.437927 0 0 0
29 1 8.058789 1.033101 13.227332 0 0 0
30 1 6.505384 1.973389 15.762420 0 0 0
31 1 6.602293 3.762950 2.710971 0 0 0
32 1 4.919374 4.606486 5.426378 0 0 0
33 1 6.475636 3.654723 7.792872 0 0 0
34 1 4.994069 4.703349 10.552964 0 0 0
35 1 6.532924 3.686674 13.260765 0 0 0
36 1 4.805447 4.717637 0.141023 0 0 0
37 1 4.930286 6.668300 2.718418 0 0 0
38 1 3.254121 7.488099 5.320056 0 0 0
39 1 4.821295 6.549836 7.969547 0 0 0
40 1 3.331415 7.459411 10.607788 0 0 0
41 1 4.872868 6.485485 13.137172 0 0 0
42 1 3.145001 7.583500 0.050705 0 0 0
43 1 3.332584 9.475437 2.676745 0 0 0
44 1 1.627320 10.325274 5.430815 0 0 0
45 1 3.280622 9.454287 7.914089 0 0 0
46 1 1.499104 10.254960 10.573879 0 0 0
47 1 3.144091 9.369348 13.095816 0 0 0
48 1 1.578476 10.224922 15.817086 0 0 0
49 1 11.423589 0.997719 2.770708 0 0 0
50 1 9.809649 1.837374 5.396906 0 0 0
51 1 11.373315 0.885162 7.812045 0 0 0
52 1 9.624664 1.800924 10.693036 0 0 0
53 1 11.264975 1.012693 13.088527 0 0 0
54 1 9.835370 1.897225 15.744039 0 0 0
55 1 9.820171 3.814700 2.507200 0 0 0
56 1 8.033717 4.710662 5.220865 0 0 0
57 1 9.682472 3.815150 7.954177 0 0 0
58 1 8.167519 4.732037 10.694937 0 0 0
59 1 9.644150 3.774087 13.195641 0 0 0
60 1 8.126729 4.624936 0.072888 0 0 0
61 1 8.056190 6.494936 2.753119 0 0 0
62 1 6.372361 7.395735 5.256675 0 0 0
63 1 8.006177 6.670438 7.957980 0 0 0
64 1 6.535912 7.461323 10.550270 0 0 0
65 1 7.993316 6.495048 13.312579 0 0 0
66 1 6.382884 7.457498 0.098241 0 0 0
67 1 6.524350 9.468462 2.757081 0 0 0
68 1 4.805317 10.415725 5.261112 0 0 0
69 1 6.596188 9.367211 7.944195 0 0 0
70 1 4.744521 10.364087 10.531255 0 0 0
71 1 6.396134 9.396799 13.041942 0 0 0
72 1 4.985625 10.355761 15.767490 0 0 0
73 1 0.066252 1.910613 5.207713 0 0 0
74 1 0.009093 1.776061 10.614285 0 0 0
75 1 0.110419 1.867525 15.798230 0 0 0
76 1 11.475161 4.577685 5.412276 0 0 0
77 1 11.416964 4.759825 10.671486 0 0 0
78 1 11.265494 4.733725 0.011092 0 0 0
79 1 11.372016 6.520698 2.528116 0 0 0
80 1 9.695982 7.538612 5.283929 0 0 0
81 1 11.394750 6.621162 7.810619 0 0 0
82 1 9.741448 7.559650 10.494970 0 0 0
83 1 11.454766 6.603050 13.144619 0 0 0
84 1 9.752880 7.576075 15.758300 0 0 0
85 1 9.618039 9.399274 2.647748 0 0 0
86 1 8.048006 10.407175 5.414494 0 0 0
87 1 9.739890 9.419637 7.922487 0 0 0
88 1 8.063205 10.202309 10.492435 0 0 0
89 1 9.786136 9.297460 13.111978 0 0 0
90 1 8.217143 10.336411 0.041198 0 0 0
91 1 12.878525 7.436798 5.365057 0 0 0
92 1 0.033775 7.403498 10.607947 0 0 0
93 1 0.005196 7.600825 15.687947 0 0 0
94 1 11.426057 10.289836 5.335585 0 0 0
95 1 11.255751 10.370724 10.415743 0 0 0
96 1 11.403713 10.312786 0.004754 0 0 0
97 2 1.685778 0.886793 4.543954 0 0 0
98 2 1.691364 1.041032 9.803006 0 0 0
99 2 1.592246 0.846787 15.328259 0 0 0
100 2 0.078702 3.801875 4.720471 0 0 0
101 2 0.019116 3.718962 9.801421 0 0 0
102 2 0.100384 3.840463 15.272483 0 0 0
103 2 4.835585 0.936665 4.677371 0 0 0
104 2 3.192806 1.794736 1.925361 0 0 0
105 2 4.831818 0.856406 9.818851 0 0 0
106 2 3.262175 1.774036 7.241773 0 0 0
107 2 4.926389 1.022852 15.222729 0 0 0
108 2 3.238532 1.946051 12.493378 0 0 0
109 2 3.215539 3.668561 4.675628 0 0 0
110 2 1.500533 4.627636 2.137847 0 0 0
111 2 3.362722 3.858238 9.771632 0 0 0
112 2 1.544701 4.670274 7.279643 0 0 0
113 2 3.238143 3.778362 15.191355 0 0 0
114 2 1.699677 4.734850 12.571654 0 0 0
115 2 1.534698 6.590899 4.761985 0 0 0
116 2 1.749301 6.612837 9.809819 0 0 0
117 2 1.717345 6.479073 15.267730 0 0 0
118 2 12.873039 9.408836 4.487386 0 0 0
119 2 0.109060 9.301285 9.778287 0 0 0
120 2 12.939723 9.413787 15.096917 0 0 0
121 2 8.242474 0.833906 4.624448 0 0 0
122 2 6.531885 1.853687 1.845818 0 0 0
123 2 8.152970 0.873293 9.949892 0 0 0
124 2 6.467842 1.941663 7.388025 0 0 0
125 2 8.191811 0.983072 15.165369 0 0 0
126 2 6.532664 1.780111 12.511917 0 0 0
127 2 6.479013 3.729087 4.555363 0 0 0
128 2 4.801680 4.741037 2.106314 0 0 0
129 2 6.566050 3.645611 9.925965 0 0 0
130 2 4.894302 4.630449 7.235752 0 0 0
131 2 6.575013 3.705461 15.187236 0 0 0
132 2 4.944575 4.676349 12.655317 0 0 0
133 2 4.917295 6.469623 4.779415 0 0 0
134 2 3.264903 7.434323 1.858019 0 0 0
135 2 4.757772 6.455898 9.856246 0 0 0
136 2 3.262435 7.577987 7.308006 0 0 0
137 2 4.897420 6.497523 15.112604 0 0 0
138 2 3.287117 7.461661 12.557076 0 0 0
139 2 3.150067 9.364511 4.783059 0 0 0
140 2 1.597572 10.214122 1.920608 0 0 0
141 2 3.261266 9.429199 9.851176 0 0 0
142 2 1.622254 10.341586 7.348095 0 0 0
143 2 3.298029 9.293410 15.319544 0 0 0
144 2 1.592376 10.319311 12.704437 0 0 0
145 2 11.485683 1.008981 4.602898 0 0 0
146 2 9.825497 1.862575 1.948178 0 0 0
147 2 11.420471 0.878772 9.806017 0 0 0
148 2 9.674807 1.826349 7.122300 0 0 0
149 2 11.380071 1.037072 15.281832 0 0 0
150 2 9.675717 1.919163 12.396088 0 0 0
151 2 9.812636 3.712211 4.570733 0 0 0
152 2 8.188044 4.661499 1.896998 0 0 0
153 2 9.759375 3.687236 9.801897 0 0 0
154 2 8.092954 4.579598 7.243516 0 0 0
155 2 9.613882 3.647636 15.092005 0 0 0
156 2 8.041511 4.710100 12.464698 0 0 0
157 2 8.136342 6.574024 4.575645 0 0 0
158 2 6.622559 7.420935 2.097441 0 0 0
159 2 8.193630 6.568062 9.756262 0 0 0
160 2 6.433807 7.612300 7.334627 0 0 0
161 2 8.045798 6.594499 15.070456 0 0 0
162 2 6.509931 7.564937 12.522533 0 0 0
163 2 6.387041 9.394774 4.671192 0 0 0
164 2 4.774010 10.394799 1.982246 0 0 0
165 2 6.437054 9.332673 9.961617 0 0 0
166 2 4.871439 10.300073 7.212618 0 0 0
167 2 6.512399 9.266072 15.207359 0 0 0
168 2 4.984716 10.308511 12.495279 0 0 0
169 2 0.079242 1.794849 1.852631 0 0 0
170 2 12.976344 1.867300 7.342866 0 0 0
171 2 0.051962 1.882487 12.456617 0 0 0
172 2 11.277575 4.665549 1.966401 0 0 0
173 2 11.490100 4.783563 7.207072 0 0 0
174 2 11.460871 4.701099 12.563731 0 0 0
175 2 11.455675 6.627350 4.638550 0 0 0
176 2 9.613492 7.470886 1.965925 0 0 0
177 2 11.401245 6.483123 9.929451 0 0 0
178 2 9.717676 7.399785 7.152564 0 0 0
179 2 11.338241 6.552986 15.137323 0 0 0
180 2 9.835760 7.524212 12.453765 0 0 0
181 2 9.650255 9.435274 4.675470 0 0 0
182 2 8.078144 10.212885 1.960855 0 0 0
183 2 9.732745 9.383074 10.012798 0 0 0
184 2 8.248580 10.286123 7.169677 0 0 0
185 2 9.870834 9.415587 15.328417 0 0 0
186 2 8.154529 10.346086 12.512392 0 0 0
187 2 12.867873 7.521062 2.059412 0 0 0
188 2 0.040271 7.401585 7.157952 0 0 0
189 2 0.066252 7.499124 12.513026 0 0 0
190 2 11.311740 10.242022 2.127864 0 0 0
191 2 11.340190 10.231447 7.281069 0 0 0
192 2 11.244710 10.323586 12.516829 0 0 0
