LAMMPS DATA file

192 atoms
0 bonds
0 angles
0 dihedrals
0 impropers

2 atom types
0 bond types
0 angle types

0.0 12.990503 xlo xhi
0.0 11.250148 ylo yhi
0.0 15.845291 zlo zhi

Masses

1 69.723
2 14.0067

Atoms

1 1 1.633556 0.878018 2.606550 0 0 0
2 1 1.536387 0.924256 7.893965 0 0 0
3 1 1.575488 1.036937 13.118475 0 0 0
4 1 0.129419 3.650223 2.750584 0 0 0
5 1 0.022385 3.769587 7.883507 0 0 0
6 1 12.986728 3.749337 13.294357 0 0 0
7 1 4.852992 0.961370 2.677379 0 0 0
8 1 3.254251 1.853462 5.336377 0 0 0
9 1 4.851953 0.878715 8.004090 0 0 0
10 1 3.169683 1.837487 10.509231 0 0 0
11 1 4.855720 1.014122 13.293407 0 0 0
12 1 3.290754 1.819486 15.792050 0 0 0
13 1 3.235934 3.796588 2.635072 0 0 0
14 1 1.584452 4.756563 5.172695 0 0 0
15 1 3.173580 3.827750 7.896025 0 0 0
16 1 1.738129 4.751050 10.661979 0 0 0
17 1 3.189298 3.724924 13.336347 0 0 0
18 1 1.609783 4.634274 0.069719 0 0 0
19 1 1.638232 6.564349 2.586744 0 0 0
20 1 1.495077 6.513723 8.026590 0 0 0
21 1 1.575748 6.661888 13.252209 0 0 0
22 1 12.863264 9.428412 2.597677 0 0 0
23 1 0.129645 9.308260 7.806182 0 0 0
24 1 0.078233 9.479825 13.332544 0 0 0
25 1 8.188953 0.922456 2.493732 0 0 0
26 1 6.614764 1.797549 5.162396 0 0 0
27 1 8.174924 1.037770 7.994741 0 0 0
28 1 6.511100 1.795186 10.600499 0 0 0
29 1 8.152190 1.015877 13.326523 0 0 0
30 1 6.396914 1.780448 0.007923 0 0 0
31 1 6.584496 3.649886 2.729668 0 0 0
32 1 4.744651 4.641474 5.187431 0 0 0
33 1 6.619960 3.658436 7.987453 0 0 0
34 1 4.950941 4.652611 10.704128 0 0 0
35 1 6.569947 3.741799 13.171239 0 0 0
36 1 4.744392 4.661049 15.695553 0 0 0
37 1 4.960424 6.463660 2.531761 0 0 0
38 1 3.374673 7.464586 5.287098 0 0 0
39 1 4.986015 6.458710 7.813947 0 0 0
40 1 3.161888 7.562462 10.410356 0 0 0
41 1 4.868971 6.618125 13.283424 0 0 0
42 1 3.197353 7.431960 15.840220 0 0 0
43 1 3.125385 9.359111 2.661533 0 0 0
44 1 1.512224 10.353624 5.394212 0 0 0
45 1 3.130451 9.278447 7.876060 0 0 0
46 1 1.541193 10.214347 10.503051 0 0 0
47 1 3.341287 9.396574 13.173775 0 0 0
48 1 1.624333 10.278923 15.722173 0 0 0
49 1 11.375914 0.914446 2.666287 0 0 0
50 1 9.702087 1.805649 5.119455 0 0 0
51 1 11.271340 0.945766 7.808401 0 0 0
52 1 9.724041 1.969901 10.661662 0 0 0
53 1 11.492958 1.017643 13.104214 0 0 0
54 1 9.697670 1.952238 15.702683 0 0 0
55 1 9.820041 3.797600 2.590071 0 0 0
56 1 8.095682 4.589948 5.382962 0 0 0
57 1 9.690136 3.839338 7.855778 0 0 0
58 1 8.094772 4.767813 10.550587 0 0 0
59 1 9.743917 3.790962 13.128774 0 0 0
60 1 8.202334 4.799538 0.074473 0 0 0
61 1 8.231432 6.610250 2.681023 0 0 0
62 1 6.605931 7.558750 5.167942 0 0 0
63 1 8.209219 6.670888 7.912980 0 0 0
64 1 6.607619 7.507449 10.621415 0 0 0
65 1 8.166999 6.666500 13.266945 0 0 0
66 1 6.558126 7.451086 0.112502 0 0 0
67 1 6.397173 9.350673 2.721746 0 0 0
68 1 4.958215 10.314473 5.434142 0 0 0
69 1 6.537990 9.284072 7.978896 0 0 0
70 1 4.899368 10.283760 10.405761 0 0 0
71 1 6.607360 9.312198 13.069037 0 0 0
72 1 4.883520 10.297598 0.003169 0 0 0
73 1 0.102625 1.778311 5.142272 0 0 0
74 1 12.911781 1.906675 10.501149 0 0 0
75 1 12.887359 1.888675 15.817244 0 0 0
76 1 11.421250 4.723037 5.418772 0 0 0
77 1 11.380980 4.596361 10.535692 0 0 0
78 1 11.317326 4.739237 15.743881 0 0 0
79 1 11.277575 6.501236 2.543486 0 0 0
80 1 9.716117 7.388310 5.321958 0 0 0
81 1 11.380980 6.656938 7.928033 0 0 0
82 1 9.653373 7.429035 10.714902 0 0 0
83 1 11.442555 6.542074 13.111661 0 0 0
84 1 9.714298 7.484499 15.704584 0 0 0
85 1 9.822769 9.281822 2.760725 0 0 0
86 1 8.217662 10.224697 5.140846 0 0 0
87 1 9.726639 9.462612 7.942293 0 0 0
88 1 8.241695 10.328761 10.499565 0 0 0
89 1 9.822509 9.370136 13.238899 0 0 0
90 1 8.044109 10.209622 15.710447 0 0 0
91 1 0.027280 7.530512 5.247802 0 0 0
92 1 0.050663 7.436010 10.423983 0 0 0
93 1 12.921783 7.423410 0.063381 0 0 0
94 1 11.496336 10.288711 5.124209 0 0 0
95 1 11.400336 10.239997 10.586239 0 0 0
96 1 11.374485 10.277348 0.063381 0 0 0
97 2 1.584971 0.947229 4.617159 0 0 0
98 2 1.497285 0.854516 9.971283 0 0 0
99 2 1.597702 0.874699 15.067604 0 0 0
100 2 12.972756 3.704786 4.671192 0 0 0
101 2 12.882060 3.656073 10.004716 0 0 0
102 2 0.062449 3.724362 15.344579 0 0 0
103 2 4.898719 0.906413 4.709696 0 0 0
104 2 3.304524 1.879112 1.862297 0 0 0
105 2 4.769723 0.870638 9.973660 0 0 0
106 2 3.296470 1.953251 7.305154 0 0 0
107 2 4.946394 0.966163 15.068713 0 0 0
108 2 3.177607 1.833212 12.490526 0 0 0
109 2 3.356876 3.650673 4.690206 0 0 0
110 2 1.624203 4.690974 1.970520 0 0 0
111 2 3.334532 3.743937 9.981265 0 0 0
112 2 1.598611 4.601198 7.233058 0 0 0
113 2 3.252562 3.796138 15.046054 0 0 0
114 2 1.553145 4.761738 12.541072 0 0 0
115 2 1.591726 6.545899 4.646473 0 0 0
116 2 1.617058 6.494373 10.017393 0 0 0
117 2 1.642389 6.534424 15.062375 0 0 0
118 2 12.958832 9.279685 4.529693 0 0 0
119 2 0.116122 9.444387 9.789854 0 0 0
120 2 0.121116 9.398261 15.246497 0 0 0
121 2 8.052163 1.035351 4.637600 0 0 0
122 2 6.367685 1.980926 2.106631 0 0 0
123 2 8.157387 0.845089 9.953695 0 0 0
124 2 6.384313 1.829949 7.307690 0 0 0
125 2 7.996694 0.860704 15.262976 0 0 0
126 2 6.503695 1.806774 12.682254 0 0 0
127 2 6.421336 3.716936 4.518760 0 0 0
128 2 4.837663 4.740925 1.837261 0 0 0
129 2 6.511100 3.686674 10.041319 0 0 0
130 2 4.876115 4.610311 7.372655 0 0 0
131 2 6.560594 3.714911 15.229067 0 0 0
132 2 4.900408 4.712125 12.580052 0 0 0
133 2 4.749198 6.537236 4.767689 0 0 0
134 2 3.289066 7.597113 2.108374 0 0 0
135 2 4.925609 6.549611 10.008202 0 0 0
136 2 3.339988 7.429485 7.221333 0 0 0
137 2 4.888586 6.491673 15.179630 0 0 0
138 2 3.165396 7.520724 12.638679 0 0 0
139 2 3.288026 9.276085 4.686403 0 0 0
140 2 1.665902 10.212097 2.069553 0 0 0
141 2 3.126684 9.464637 9.974452 0 0 0
142 2 1.517161 10.275210 7.153356 0 0 0
143 2 3.179815 9.481062 15.339826 0 0 0
144 2 1.703575 10.407850 12.607464 0 0 0
145 2 11.404103 0.936777 4.782901 0 0 0
146 2 9.801075 1.847949 1.852948 0 0 0
147 2 11.427096 0.940602 9.915824 0 0 0
148 2 9.824588 1.950326 7.409575 0 0 0
149 2 11.363183 0.865564 15.088678 0 0 0
150 2 9.768209 1.981826 12.685106 0 0 0
151 2 9.756907 3.702536 4.539993 0 0 0
152 2 8.188304 4.624148 1.968777 0 0 0
153 2 9.704166 3.732237 10.005984 0 0 0
154 2 7.997084 4.627523 7.397215 0 0 0
155 2 9.831473 3.824600 15.081389 0 0 0
156 2 8.068531 4.740925 12.581795 0 0 0
157 2 8.142837 6.655250 4.628409 0 0 0
158 2 6.571246 7.568650 2.034060 0 0 0
159 2 8.144786 6.517098 10.056372 0 0 0
160 2 6.605021 7.533887 7.165240 0 0 0
161 2 8.035665 6.523286 15.232870 0 0 0
162 2 6.439003 7.455811 12.673697 0 0 0
163 2 6.619701 9.454287 4.625716 0 0 0
164 2 4.968997 10.359811 2.129766 0 0 0
165 2 6.432637 9.470487 9.989822 0 0 0
166 2 4.912749 10.250685 7.369169 0 0 0
167 2 6.477844 9.350336 15.183274 0 0 0
168 2 4.811552 10.332586 12.698574 0 0 0
169 2 0.098728 1.979351 1.990961 0 0 0
170 2 0.002598 1.887550 7.378676 0 0 0
171 2 0.088335 1.791474 12.471353 0 0 0
172 2 11.324081 4.739462 2.043567 0 0 0
173 2 11.321743 4.656211 7.214044 0 0 0
174 2 11.357987 4.771075 12.693504 0 0 0
175 2 11.383318 6.662675 4.732513 0 0 0
176 2 9.683381 7.463573 1.880836 0 0 0
177 2 11.487632 6.542636 10.024682 0 0 0
178 2 9.852128 7.564712 7.218797 0 0 0
179 2 11.254842 6.621837 15.220669 0 0 0
180 2 9.759635 7.541537 12.589559 0 0 0
181 2 9.805622 9.425937 4.575169 0 0 0
182 2 8.055931 10.252485 2.123110 0 0 0
183 2 9.728978 9.433362 9.880648 0 0 0
184 2 8.173235 10.350249 7.399592 0 0 0
185 2 9.804712 9.334360 15.313523 0 0 0
186 2 8.064504 10.406837 12.703962 0 0 0
187 2 12.981150 7.579225 1.933601 0 0 0
188 2 12.882292 7.611850 7.195346 0 0 0
189 2 0.029878 7.595200 12.473888 0 0 0
190 2 11.327979 10.373199 1.992862 0 0 0
191 2 11.328888 10.280385 7.353641 0 0 0
192 2 11.264195 10.218060 12.694930 0 0 0
