LAMMPS DATA file

64 atoms

1 atom types

0.000000 10.862000 xlo xhi
0.000000 10.862000 ylo yhi
0.000000 10.862000 zlo zhi

Masses

1 28.0855

Atoms

1 1 6.744200 1.334490 1.369310
2 1 9.449050 4.076950 1.328210
3 1 9.517680 1.376320 4.074620
4 1 1.372180 1.342000 1.373500
5 1 4.039680 4.041680 1.366110
6 1 6.814610 6.773250 1.339790
7 1 9.549600 9.481800 1.368090
8 1 4.106330 1.341080 4.094060
9 1 6.806670 4.050800 4.041520
10 1 9.517700 6.761570 4.091660
11 1 6.805070 1.403380 6.833650
12 1 9.502170 4.118630 6.868550
13 1 9.479510 1.345770 9.503160
14 1 1.283650 6.782620 1.357490
15 1 4.067050 9.464970 1.316490
16 1 1.365060 4.088160 4.055280
17 1 4.050470 6.791540 4.117810
18 1 6.782760 9.483240 4.060040
19 1 1.418000 1.416110 6.735820
20 1 4.114480 4.111970 6.751140
21 1 6.813910 6.742720 6.820140
22 1 9.486830 9.479600 6.787200
23 1 4.103780 1.392160 9.438760
24 1 6.753110 4.068350 9.561050
25 1 9.497840 6.813050 9.525140
26 1 1.373880 9.505360 4.065180
27 1 1.347500 6.780710 6.794770
28 1 4.059860 9.542220 6.793340
29 1 1.341560 4.078490 9.532470
30 1 4.082520 6.779120 9.468650
31 1 6.794310 9.495690 9.498730
32 1 1.336540 9.554830 9.502140
33 1 5.439070 -0.004176 -0.015906
34 1 8.146680 2.681290 0.004247
35 1 8.142950 -0.043107 2.691070
36 1 0.021212 0.017052 -0.020951
37 1 2.722410 2.717400 0.003494
38 1 5.398950 5.421600 0.027420
39 1 8.136830 8.189210 0.004831
40 1 2.745570 -0.015718 2.745240
41 1 5.448750 2.688180 2.708040
42 1 8.155730 5.441600 2.717110
43 1 5.431580 0.016496 5.438710
44 1 8.178190 2.734770 5.434170
45 1 8.159210 0.012289 8.132440
46 1 -0.045896 5.432630 -0.012850
47 1 2.634950 8.145510 0.057383
48 1 0.060466 2.702470 2.716890
49 1 2.708890 5.444610 2.714690
50 1 5.393330 8.112870 2.690740
51 1 0.009075 0.001345 5.425970
52 1 2.746830 2.740490 5.419350
53 1 5.417480 5.413440 5.406590
54 1 8.140140 8.160630 5.404180
55 1 2.724880 0.002319 8.132150
56 1 5.445100 2.703610 8.156180
57 1 8.144620 5.420380 8.195430
58 1 -0.012325 8.156290 2.731530
59 1 0.005903 5.433350 5.424770
60 1 2.673230 8.161730 5.426030
61 1 0.032769 2.694620 8.155590
62 1 2.749700 5.446720 8.147290
63 1 5.423040 8.145680 8.120620
64 1 -0.020863 8.141780 8.119700
