LAMMPS DATA file

64 atoms

1 atom types

0.000000 10.862000 xlo xhi
0.000000 10.862000 ylo yhi
0.000000 10.862000 zlo zhi

Masses

1 28.0855

Atoms

1 1 6.765750 1.370180 1.320520
2 1 9.555580 4.048220 1.319810
3 1 9.496090 1.326850 4.061290
4 1 1.365710 1.360980 1.377410
5 1 4.099470 4.098240 1.390870
6 1 6.830100 6.848010 1.369880
7 1 9.495880 9.496650 1.375580
8 1 4.057810 1.353180 4.092490
9 1 6.758880 4.120800 4.025010
10 1 9.512520 6.799370 4.035840
11 1 6.763170 1.399440 6.793040
12 1 9.442000 4.099200 6.781060
13 1 9.520230 1.330020 9.497150
14 1 1.318240 6.791840 1.371240
15 1 4.032590 9.542770 1.357260
16 1 1.377560 4.054760 4.104440
17 1 4.086700 6.769930 4.073840
18 1 6.799260 9.499720 4.113760
19 1 1.367540 1.348650 6.800570
20 1 4.056560 4.030180 6.787470
21 1 6.776960 6.771880 6.763640
22 1 9.519890 9.521650 6.779700
23 1 4.077200 1.327170 9.473750
24 1 6.819830 4.022050 9.482230
25 1 9.501470 6.781460 9.489140
26 1 1.362900 9.488560 4.072070
27 1 1.347120 6.803770 6.760460
28 1 4.081550 9.468380 6.773220
29 1 1.401990 4.075940 9.563120
30 1 4.076030 6.793960 9.522310
31 1 6.790950 9.507170 9.540700
32 1 1.346180 9.512260 9.463860
33 1 5.388610 0.011468 -0.025573
34 1 8.132560 2.672910 -0.034359
35 1 8.107910 0.001431 2.730630
36 1 -0.028002 -0.012938 0.026001
37 1 2.788450 2.695510 0.043023
38 1 5.490830 5.429530 0.020365
39 1 8.191010 8.139590 0.022871
40 1 2.709730 -0.010005 2.704880
41 1 5.388800 2.714810 2.709520
42 1 8.172780 5.440990 2.637210
43 1 5.485950 -0.000855 5.460050
44 1 8.107970 2.740280 5.430390
45 1 8.129310 -0.001918 8.141080
46 1 0.012003 5.447220 -0.020778
47 1 2.678510 8.162770 -0.044369
48 1 -0.004941 2.721850 2.737300
49 1 2.707820 5.462000 2.745450
50 1 5.433910 8.175510 2.744220
51 1 0.008063 0.002076 5.438910
52 1 2.703950 2.719620 5.416270
53 1 5.406800 5.427190 5.418150
54 1 8.191840 8.140450 5.453560
55 1 2.719170 0.016319 8.116200
56 1 5.429230 2.744510 8.132420
57 1 8.113550 5.442140 8.210520
58 1 0.017150 8.130780 2.728650
59 1 -0.006744 5.417160 5.441120
60 1 2.737520 8.106200 5.432080
61 1 -0.027605 2.738930 8.175920
62 1 2.679660 5.403960 8.113030
63 1 5.464480 8.135870 8.163620
64 1 0.002041 8.157430 8.134930
