LAMMPS DATA file

192 atoms
0 bonds
0 angles
0 dihedrals
0 impropers

2 atom types
0 bond types
0 angle types

0.0 12.990503 xlo xhi
0.0 11.250148 ylo yhi
0.0 15.845291 zlo zhi

Masses

1 69.723
2 14.0067

Atoms

1 1 1.533399 0.876724 2.741869 0 0 0
2 1 1.697209 0.982487 8.027383 0 0 0
3 1 1.527553 0.861345 13.104372 0 0 0
4 1 0.008354 3.834951 2.663276 0 0 0
5 1 12.945260 3.791862 7.782573 0 0 0
6 1 12.935213 3.770937 13.095340 0 0 0
7 1 4.796354 1.025597 2.755179 0 0 0
8 1 3.165916 1.830399 5.228471 0 0 0
9 1 4.787520 0.865485 8.006308 0 0 0
10 1 3.293352 1.883950 10.596538 0 0 0
11 1 4.809734 0.895253 13.310995 0 0 0
12 1 3.133050 1.838162 0.134685 0 0 0
13 1 3.151496 3.807725 2.498010 0 0 0
14 1 1.740208 4.722137 5.150512 0 0 0
15 1 3.221775 3.765875 7.958931 0 0 0
16 1 1.564057 4.741600 10.518104 0 0 0
17 1 3.318554 3.804688 13.339675 0 0 0
18 1 1.519369 4.646874 15.681609 0 0 0
19 1 1.623293 6.667963 2.484542 0 0 0
20 1 1.623813 6.543761 8.020886 0 0 0
21 1 1.680581 6.459498 13.282790 0 0 0
22 1 12.908153 9.396686 2.666921 0 0 0
23 1 0.090239 9.455975 7.807292 0 0 0
24 1 0.061184 9.456987 13.341418 0 0 0
25 1 8.088667 0.846045 2.540000 0 0 0
26 1 6.459138 1.970463 5.256992 0 0 0
27 1 8.087108 0.931839 7.785584 0 0 0
28 1 6.489536 1.936038 10.447117 0 0 0
29 1 8.068012 1.046613 13.166010 0 0 0
30 1 6.537731 1.936151 0.030106 0 0 0
31 1 6.411593 3.641898 2.539683 0 0 0
32 1 4.884299 4.644961 5.181727 0 0 0
33 1 6.495122 3.774650 8.014706 0 0 0
34 1 4.901447 4.666336 10.548844 0 0 0
35 1 6.367295 3.735837 13.091221 0 0 0
36 1 4.863385 4.758813 0.009507 0 0 0
37 1 4.752316 6.513048 2.493732 0 0 0
38 1 3.209044 7.419135 5.231798 0 0 0
39 1 4.794015 6.515636 7.996326 0 0 0
40 1 3.322971 7.611288 10.677507 0 0 0
41 1 4.795184 6.497411 13.339199 0 0 0
42 1 3.291014 7.407773 15.836259 0 0 0
43 1 3.157861 9.459575 2.757397 0 0 0
44 1 1.665253 10.206247 5.421466 0 0 0
45 1 3.285558 9.282835 7.848014 0 0 0
46 1 1.693182 10.244160 10.407504 0 0 0
47 1 3.151886 9.341111 13.259022 0 0 0
48 1 1.518720 10.312448 15.723123 0 0 0
49 1 11.399686 0.947375 2.668347 0 0 0
50 1 9.821990 1.880012 5.149878 0 0 0
51 1 11.413066 1.009183 7.877803 0 0 0
52 1 9.612972 1.766161 10.481818 0 0 0
53 1 11.481786 0.915200 13.088052 0 0 0
54 1 9.692214 1.799799 15.799973 0 0 0
55 1 9.785486 3.802213 2.519718 0 0 0
56 1 8.053722 4.794701 5.340814 0 0 0
57 1 9.724041 3.669911 7.903948 0 0 0
58 1 8.145046 4.744750 10.458684 0 0 0
59 1 9.826796 3.689036 13.327632 0 0 0
60 1 8.236888 4.687937 15.786663 0 0 0
61 1 8.039693 6.467935 2.528750 0 0 0
62 1 6.529806 7.558187 5.271887 0 0 0
63 1 8.058659 6.589887 8.024847 0 0 0
64 1 6.416789 7.564712 10.570235 0 0 0
65 1 8.121403 6.575374 13.141609 0 0 0
66 1 6.472258 7.591150 0.110917 0 0 0
67 1 6.605021 9.389486 2.536039 0 0 0
68 1 4.917295 10.280498 5.174913 0 0 0
69 1 6.472778 9.442812 7.838348 0 0 0
70 1 4.914307 10.239997 10.536484 0 0 0
71 1 6.390288 9.330310 13.268529 0 0 0
72 1 4.841171 10.298723 15.684302 0 0 0
73 1 12.905415 1.781236 5.325444 0 0 0
74 1 12.973616 1.907125 10.563738 0 0 0
75 1 12.894763 1.859087 0.150530 0 0 0
76 1 11.335643 4.763875 5.133240 0 0 0
77 1 11.283551 4.733275 10.494019 0 0 0
78 1 11.346685 4.695137 0.080811 0 0 0
79 1 11.298620 6.590899 2.704474 0 0 0
80 1 9.669871 7.497661 5.398649 0 0 0
81 1 11.496465 6.627012 7.810302 0 0 0
82 1 9.775873 7.460986 10.589566 0 0 0
83 1 11.431253 6.644113 13.060005 0 0 0
84 1 9.770807 7.481011 15.812649 0 0 0
85 1 9.709882 9.317260 2.637766 0 0 0
86 1 8.243254 10.303111 5.427170 0 0 0
87 1 9.624274 9.386899 8.036098 0 0 0
88 1 8.066973 10.214347 10.587823 0 0 0
89 1 9.662466 9.329185 13.115147 0 0 0
90 1 8.153100 10.208610 15.823741 0 0 0
91 1 12.916068 7.474823 5.128487 0 0 0
92 1 0.115615 7.490911 10.650095 0 0 0
93 1 12.888398 7.558750 0.144192 0 0 0
94 1 11.260688 10.284661 5.281235 0 0 0
95 1 11.237825 10.413250 10.542664 0 0 0
96 1 11.492179 10.252598 15.797755 0 0 0
97 2 1.562238 0.827988 4.490872 0 0 0
98 2 1.592246 0.950986 9.825189 0 0 0
99 2 1.647456 1.026047 15.238416 0 0 0
100 2 0.001012 3.782525 4.709220 0 0 0
101 2 12.946058 3.760925 9.991723 0 0 0
102 2 12.899956 3.843501 15.265511 0 0 0
103 2 4.977571 0.962011 4.666755 0 0 0
104 2 3.210603 1.961801 1.911259 0 0 0
105 2 4.768684 0.898088 9.916775 0 0 0
106 2 3.164746 1.884287 7.202318 0 0 0
107 2 4.992250 0.904006 15.169489 0 0 0
108 2 3.337260 1.839062 12.597798 0 0 0
109 2 3.254771 3.652698 4.564394 0 0 0
110 2 1.622254 4.725512 2.143392 0 0 0
111 2 3.282830 3.811100 9.832320 0 0 0
112 2 1.545610 4.628761 7.273939 0 0 0
113 2 3.278413 3.660011 15.160774 0 0 0
114 2 1.746183 4.721462 12.639313 0 0 0
115 2 1.514693 6.558161 4.489605 0 0 0
116 2 1.606795 6.573012 10.021988 0 0 0
117 2 1.595753 6.636687 15.114030 0 0 0
118 2 12.873763 9.468237 4.693217 0 0 0
119 2 0.047712 9.433699 9.760065 0 0 0
120 2 0.031214 9.378911 15.213063 0 0 0
121 2 8.139849 0.872258 4.730611 0 0 0
122 2 6.448096 1.862125 1.885906 0 0 0
123 2 8.057879 0.841511 9.987920 0 0 0
124 2 6.466932 1.902738 7.155733 0 0 0
125 2 8.085809 0.858218 15.144929 0 0 0
126 2 6.490575 1.889912 12.571812 0 0 0
127 2 6.573584 3.821450 4.628885 0 0 0
128 2 4.872218 4.733950 1.997616 0 0 0
129 2 6.600864 3.851038 9.940068 0 0 0
130 2 4.930286 4.671174 7.112159 0 0 0
131 2 6.503306 3.685886 15.090262 0 0 0
132 2 4.989263 4.742612 12.468976 0 0 0
133 2 4.769074 6.674938 4.678956 0 0 0
134 2 3.239702 7.402823 1.989059 0 0 0
135 2 4.885209 6.520473 9.865119 0 0 0
136 2 3.312319 7.567975 7.299767 0 0 0
137 2 4.818437 6.602487 15.158873 0 0 0
138 2 3.259707 7.532874 12.609524 0 0 0
139 2 3.288026 9.309723 4.771017 0 0 0
140 2 1.618227 10.304011 1.980186 0 0 0
141 2 3.156692 9.288797 9.967005 0 0 0
142 2 1.716175 10.232685 7.249854 0 0 0
143 2 3.122267 9.283172 15.247606 0 0 0
144 2 1.738779 10.304461 12.695088 0 0 0
145 2 11.366301 1.001319 4.680382 0 0 0
146 2 9.710401 1.777748 2.032792 0 0 0
147 2 11.352011 0.858780 9.773217 0 0 0
148 2 9.812636 1.802499 7.177600 0 0 0
149 2 11.385656 0.968210 15.101671 0 0 0
150 2 9.728978 1.922088 12.397038 0 0 0
151 2 9.757817 3.760925 4.471699 0 0 0
152 2 8.106724 4.650699 1.937721 0 0 0
153 2 9.726379 3.724362 9.949258 0 0 0
154 2 8.172845 4.628986 7.329239 0 0 0
155 2 9.663635 3.736062 15.239525 0 0 0
156 2 8.039952 4.749363 12.411775 0 0 0
157 2 7.997084 6.674713 4.688463 0 0 0
158 2 6.611776 7.587437 2.132618 0 0 0
159 2 8.015270 6.652775 9.918360 0 0 0
160 2 6.578131 7.556500 7.390877 0 0 0
161 2 8.200515 6.500223 15.080121 0 0 0
162 2 6.563582 7.605325 12.678134 0 0 0
163 2 6.415880 9.296785 4.617001 0 0 0
164 2 4.977831 10.242922 2.039606 0 0 0
165 2 6.482261 9.442812 9.943871 0 0 0
166 2 4.851563 10.304236 7.406564 0 0 0
167 2 6.602423 9.398936 15.310829 0 0 0
168 2 4.825452 10.373874 12.502727 0 0 0
169 2 12.941659 1.944588 1.993971 0 0 0
170 2 12.955039 1.906338 7.170945 0 0 0
171 2 0.059756 1.821624 12.466758 0 0 0
172 2 11.372536 4.757238 1.961805 0 0 0
173 2 11.399686 4.615598 7.317831 0 0 0
174 2 11.313949 4.797626 12.533942 0 0 0
175 2 11.328109 6.581674 4.748517 0 0 0
176 2 9.824068 7.541199 2.142759 0 0 0
177 2 11.294073 6.656825 10.034030 0 0 0
178 2 9.844463 7.451198 7.208498 0 0 0
179 2 11.370847 6.658400 15.201338 0 0 0
180 2 9.789513 7.412948 12.583379 0 0 0
181 2 9.685589 9.288572 4.745348 0 0 0
182 2 8.162972 10.232572 2.074941 0 0 0
183 2 9.714039 9.333460 10.023255 0 0 0
184 2 8.226886 10.261373 7.380261 0 0 0
185 2 9.630250 9.405349 15.310512 0 0 0
186 2 8.019557 10.407512 12.582904 0 0 0
187 2 12.872290 7.395397 1.867843 0 0 0
188 2 0.094831 7.505536 7.169043 0 0 0
189 2 12.882292 7.449848 12.423183 0 0 0
190 2 11.468406 10.394799 1.919023 0 0 0
191 2 11.268482 10.364874 7.185998 0 0 0
192 2 11.254712 10.279935 12.525227 0 0 0
