LAMMPS DATA file

64 atoms

1 atom types

0.000000 10.862000 xlo xhi
0.000000 10.862000 ylo yhi
0.000000 10.862000 zlo zhi

Masses

1 28.0855

Atoms

1 1 6.772720 1.359830 1.341310
2 1 9.570200 4.027650 1.315830
3 1 9.454590 1.348890 4.092730
4 1 1.379130 1.372340 1.388970
5 1 4.096500 4.141870 1.387210
6 1 6.828610 6.892540 1.372160
7 1 9.500930 9.534040 1.391360
8 1 4.045230 1.351710 4.132670
9 1 6.785470 4.112350 3.998680
10 1 9.496600 6.819250 4.075090
11 1 6.770210 1.365730 6.776830
12 1 9.446410 4.061760 6.769300
13 1 9.520150 1.343460 9.480460
14 1 1.384300 6.795170 1.345980
15 1 4.060870 9.511010 1.368590
16 1 1.352250 4.049310 4.071850
17 1 4.073710 6.803150 4.074660
18 1 6.789440 9.530550 4.088320
19 1 1.309730 1.314130 6.797700
20 1 4.039950 4.044360 6.787180
21 1 6.787520 6.765350 6.745640
22 1 9.521990 9.503620 6.772990
23 1 4.055690 1.321680 9.490740
24 1 6.805610 4.024030 9.501770
25 1 9.521450 6.821960 9.451740
26 1 1.363480 9.516200 4.097940
27 1 1.362290 6.763530 6.763800
28 1 4.082370 9.449240 6.801200
29 1 1.413550 4.038760 9.548750
30 1 4.078790 6.801780 9.532620
31 1 6.787850 9.522510 9.538060
32 1 1.344210 9.495470 9.489170
33 1 5.399190 0.006795 -0.033085
34 1 8.119500 2.693590 -0.019067
35 1 8.089900 0.013712 2.760920
36 1 0.020661 -0.010559 0.026920
37 1 2.756960 2.690650 0.028612
38 1 5.502660 5.456710 0.013081
39 1 8.220180 8.164520 0.014580
40 1 2.712630 -0.020483 2.715470
41 1 5.395970 2.737240 2.717520
42 1 8.185900 5.431190 2.627810
43 1 5.462720 -0.002853 5.492730
44 1 8.100660 2.736340 5.396110
45 1 8.111070 -0.024032 8.140330
46 1 0.024473 5.414980 -0.038416
47 1 2.704920 8.160390 -0.058321
48 1 -0.046895 2.717680 2.733620
49 1 2.707960 5.463350 2.738940
50 1 5.456460 8.200520 2.731670
51 1 -0.020064 0.022056 5.433660
52 1 2.660420 2.690500 5.409440
53 1 5.427450 5.433260 5.427540
54 1 8.179940 8.113940 5.452320
55 1 2.705410 0.010012 8.120460
56 1 5.399050 2.733430 8.137220
57 1 8.115950 5.453140 8.179200
58 1 0.038867 8.148880 2.719720
59 1 -0.035128 5.395110 5.453680
60 1 2.750170 8.096130 5.454930
61 1 -0.035595 2.730490 8.170120
62 1 2.724090 5.406700 8.122740
63 1 5.476350 8.108140 8.147430
64 1 0.022365 8.161220 8.126850
