LAMMPS DATA file

64 atoms

1 atom types

0.000000 10.862000 xlo xhi
0.000000 10.862000 ylo yhi
0.000000 10.862000 zlo zhi

Masses

1 28.0855

Atoms

1 1 6.789650 1.338770 1.357040
2 1 9.490300 4.101650 1.352520
3 1 9.519100 1.371610 4.055110
4 1 1.397400 1.346050 1.386150
5 1 4.042770 4.045580 1.370470
6 1 6.847260 6.820560 1.332370
7 1 9.536890 9.571550 1.352990
8 1 4.065740 1.371870 4.076380
9 1 6.795100 4.085870 4.101510
10 1 9.510830 6.803670 4.036390
11 1 6.763160 1.340730 6.773010
12 1 9.526480 4.009640 6.776710
13 1 9.504130 1.374750 9.538750
14 1 1.382150 6.804620 1.366190
15 1 4.091920 9.515760 1.375210
16 1 1.339060 4.066160 4.051800
17 1 4.059310 6.799000 4.047520
18 1 6.758890 9.518920 4.076630
19 1 1.336530 1.312500 6.774170
20 1 4.106800 4.068530 6.768320
21 1 6.768680 6.783180 6.781600
22 1 9.478920 9.463760 6.737040
23 1 4.057200 1.342170 9.562190
24 1 6.793620 4.098180 9.497380
25 1 9.527570 6.781720 9.516900
26 1 1.328470 9.521730 4.115080
27 1 1.365550 6.768210 6.825180
28 1 4.033200 9.514790 6.819500
29 1 1.348730 4.061560 9.450040
30 1 4.083330 6.809680 9.513960
31 1 6.784110 9.508160 9.469250
32 1 1.387840 9.454210 9.507970
33 1 5.423380 -0.012355 -0.008528
34 1 8.090590 2.748380 0.010693
35 1 8.176580 0.016047 2.751350
36 1 0.024124 0.005167 -0.002087
37 1 2.692430 2.751400 -0.021035
38 1 5.413520 5.458420 0.007740
39 1 8.164180 8.170480 -0.005723
40 1 2.751300 0.001614 2.736160
41 1 5.420860 2.725600 2.700830
42 1 8.154780 5.441120 2.702640
43 1 5.409720 -0.000842 5.429540
44 1 8.121150 2.710500 5.493790
45 1 8.162270 0.022962 8.133100
46 1 -0.002608 5.415780 -0.008969
47 1 2.762360 8.154170 -0.017096
48 1 -0.030095 2.704840 2.680150
49 1 2.714350 5.422930 2.709290
50 1 5.463460 8.123570 2.709260
51 1 -0.074021 0.006159 5.424740
52 1 2.677720 2.749620 5.421710
53 1 5.451440 5.458540 5.395850
54 1 8.108450 8.144410 5.421210
55 1 2.690120 0.005257 8.186160
56 1 5.430900 2.719760 8.155370
57 1 8.170740 5.402840 8.162000
58 1 0.014603 8.134840 2.716830
59 1 0.027910 5.420570 5.452470
60 1 2.718100 8.125340 5.469320
61 1 -0.037423 2.686060 8.128490
62 1 2.722980 5.404040 8.135900
63 1 5.463200 8.119760 8.151600
64 1 0.038280 8.123870 8.147900
