LAMMPS DATA file

64 atoms

1 atom types

0.000000 10.862000 xlo xhi
0.000000 10.862000 ylo yhi
0.000000 10.862000 zlo zhi

Masses

1 28.0855

Atoms

1 1 6.738870 1.359340 1.368920
2 1 9.530620 4.057390 1.278930
3 1 9.471300 1.364630 4.051250
4 1 1.363970 1.380670 1.407840
5 1 4.068350 4.109100 1.373860
6 1 6.821470 6.876960 1.335030
7 1 9.543200 9.578850 1.399190
8 1 4.065510 1.333990 4.115090
9 1 6.789580 4.088480 4.006540
10 1 9.538080 6.773900 4.061450
11 1 6.803740 1.426060 6.822750
12 1 9.451590 4.071780 6.825350
13 1 9.483710 1.291810 9.486660
14 1 1.349330 6.794820 1.343340
15 1 4.074080 9.471120 1.344840
16 1 1.353850 4.079820 4.058430
17 1 4.078450 6.829320 4.062080
18 1 6.781800 9.478350 4.081040
19 1 1.349350 1.375340 6.772040
20 1 4.052800 4.054230 6.746490
21 1 6.808400 6.757330 6.773710
22 1 9.471870 9.484300 6.772000
23 1 4.070830 1.360690 9.474510
24 1 6.773780 4.062630 9.551090
25 1 9.542800 6.795250 9.490110
26 1 1.376230 9.493160 4.135760
27 1 1.333170 6.744680 6.774330
28 1 4.029050 9.483980 6.803000
29 1 1.410590 4.038750 9.542360
30 1 4.097030 6.764030 9.528680
31 1 6.821950 9.507610 9.518760
32 1 1.358660 9.510270 9.500250
33 1 5.409740 0.023086 -0.014585
34 1 8.133580 2.677830 0.003300
35 1 8.107800 0.010202 2.701020
36 1 0.026124 0.026961 0.025268
37 1 2.760290 2.695440 0.022557
38 1 5.484050 5.458670 0.006339
39 1 8.230170 8.172660 -0.012974
40 1 2.716260 -0.000918 2.732250
41 1 5.409580 2.717660 2.714950
42 1 8.203040 5.442620 2.650020
43 1 5.426100 -0.014640 5.488390
44 1 8.088460 2.780570 5.402470
45 1 8.123940 -0.010413 8.133100
46 1 -0.017063 5.444200 -0.042990
47 1 2.689810 8.138440 0.005962
48 1 -0.007874 2.707570 2.718790
49 1 2.694200 5.468580 2.709800
50 1 5.432350 8.150620 2.720390
51 1 -0.030941 0.006479 5.427380
52 1 2.673030 2.735670 5.445760
53 1 5.445710 5.388280 5.400830
54 1 8.149020 8.132570 5.430590
55 1 2.712130 -0.016096 8.120210
56 1 5.384190 2.758610 8.156430
57 1 8.108920 5.438430 8.218340
58 1 0.030557 8.131480 2.740230
59 1 -0.014791 5.384870 5.409250
60 1 2.724970 8.139130 5.444330
61 1 0.001177 2.723260 8.152430
62 1 2.738320 5.391880 8.146770
63 1 5.484790 8.114920 8.140140
64 1 0.014345 8.118730 8.133600
