LAMMPS DATA file

192 atoms
0 bonds
0 angles
0 dihedrals
0 impropers

2 atom types
0 bond types
0 angle types

0.0 12.990503 xlo xhi
0.0 11.250148 ylo yhi
0.0 15.845291 zlo zhi

Masses

1 69.723
2 14.0067

Atoms

1 1 1.530281 1.007451 2.557113 0 0 0
2 1 1.500273 0.944427 8.054953 0 0 0
3 1 1.693832 0.916077 13.267896 0 0 0
4 1 12.985652 3.736849 2.775620 0 0 0
5 1 0.020469 3.813913 7.985234 0 0 0
6 1 12.897535 3.793437 13.165218 0 0 0
7 1 4.774789 0.969212 2.634596 0 0 0
8 1 3.134349 1.880350 5.217537 0 0 0
9 1 4.963671 0.827032 7.822978 0 0 0
10 1 3.346484 1.811611 10.500199 0 0 0
11 1 4.830908 1.005032 13.221469 0 0 0
12 1 3.328946 1.781911 15.742296 0 0 0
13 1 3.281271 3.651911 2.712397 0 0 0
14 1 1.650703 4.754763 5.168734 0 0 0
15 1 3.309461 3.807838 8.037999 0 0 0
16 1 1.605366 4.617286 10.495604 0 0 0
17 1 3.201120 3.736962 13.155236 0 0 0
18 1 1.656419 4.786263 15.772244 0 0 0
19 1 1.557431 6.657275 2.770391 0 0 0
20 1 1.574449 6.467260 8.006150 0 0 0
21 1 1.527943 6.553886 13.179954 0 0 0
22 1 0.027283 9.291160 2.666762 0 0 0
23 1 12.894927 9.288572 7.898560 0 0 0
24 1 12.931034 9.475100 13.204198 0 0 0
25 1 8.104905 0.894443 2.625723 0 0 0
26 1 6.567869 1.800474 5.125001 0 0 0
27 1 8.173235 0.961168 7.889846 0 0 0
28 1 6.603073 1.869887 10.690025 0 0 0
29 1 8.118285 1.033709 13.263459 0 0 0
30 1 6.545785 1.763573 0.007923 0 0 0
31 1 6.472648 3.778925 2.649174 0 0 0
32 1 4.797653 4.699299 5.391202 0 0 0
33 1 6.366646 3.665636 8.004407 0 0 0
34 1 4.746860 4.607161 10.501149 0 0 0
35 1 6.600475 3.775775 13.045586 0 0 0
36 1 4.822465 4.618411 15.768599 0 0 0
37 1 4.748419 6.637025 2.719210 0 0 0
38 1 3.305044 7.572700 5.360145 0 0 0
39 1 4.772841 6.536561 7.767520 0 0 0
40 1 3.118110 7.389210 10.452821 0 0 0
41 1 4.780635 6.566037 13.173141 0 0 0
42 1 3.272048 7.449961 0.023768 0 0 0
43 1 3.269710 9.289922 2.501813 0 0 0
44 1 1.502222 10.237972 5.283929 0 0 0
45 1 3.336351 9.331548 7.819334 0 0 0
46 1 1.510796 10.413025 10.477223 0 0 0
47 1 3.280232 9.309160 13.117048 0 0 0
48 1 1.687077 10.235272 0.096656 0 0 0
49 1 11.261207 1.045465 2.684034 0 0 0
50 1 9.686758 1.957638 5.127378 0 0 0
51 1 11.434501 1.026655 7.954811 0 0 0
52 1 9.800166 1.866850 10.640113 0 0 0
53 1 11.238604 0.868545 13.069513 0 0 0
54 1 9.656620 1.974514 0.104579 0 0 0
55 1 9.648696 3.786237 2.489137 0 0 0
56 1 8.027611 4.616611 5.322275 0 0 0
57 1 9.835500 3.829550 7.915198 0 0 0
58 1 8.192071 4.636861 10.706187 0 0 0
59 1 9.870314 3.656523 13.144936 0 0 0
60 1 8.058918 4.623698 0.079226 0 0 0
61 1 8.083990 6.484698 2.529225 0 0 0
62 1 6.597487 7.600375 5.281869 0 0 0
63 1 7.993966 6.544436 7.797467 0 0 0
64 1 6.612686 7.448386 10.682736 0 0 0
65 1 8.221689 6.624537 13.328425 0 0 0
66 1 6.369633 7.603413 15.705218 0 0 0
67 1 6.439392 9.372498 2.784493 0 0 0
68 1 4.889106 10.261823 5.158751 0 0 0
69 1 6.405617 9.323110 7.896184 0 0 0
70 1 4.844418 10.295798 10.594320 0 0 0
71 1 6.481482 9.265285 13.051290 0 0 0
72 1 4.845198 10.420562 0.007923 0 0 0
73 1 0.106522 1.835462 5.209932 0 0 0
74 1 0.098728 1.937838 10.524600 0 0 0
75 1 0.098728 1.858299 15.829128 0 0 0
76 1 11.347205 4.677474 5.338278 0 0 0
77 1 11.261597 4.740137 10.440779 0 0 0
78 1 11.365781 4.633486 0.023768 0 0 0
79 1 11.295892 6.665038 2.496901 0 0 0
80 1 9.660518 7.528037 5.210248 0 0 0
81 1 11.272379 6.492573 8.061925 0 0 0
82 1 9.690006 7.440961 10.608739 0 0 0
83 1 11.237954 6.467710 13.138598 0 0 0
84 1 9.671170 7.544012 0.058628 0 0 0
85 1 9.834331 9.388361 2.657731 0 0 0
86 1 8.127119 10.393337 5.259210 0 0 0
87 1 9.712610 9.396574 7.855303 0 0 0
88 1 8.015400 10.283873 10.469934 0 0 0
89 1 9.780030 9.437412 13.176785 0 0 0
90 1 8.150502 10.262948 15.832773 0 0 0
91 1 12.942308 7.573712 5.353331 0 0 0
92 1 12.898141 7.402935 10.568175 0 0 0
93 1 0.063653 7.575625 0.064966 0 0 0
94 1 11.467367 10.236735 5.181568 0 0 0
95 1 11.465938 10.304123 10.458842 0 0 0
96 1 11.425148 10.398962 0.088734 0 0 0
97 2 1.712928 0.946070 4.534922 0 0 0
98 2 1.631737 1.014752 9.818534 0 0 0
99 2 1.680062 1.019117 15.181373 0 0 0
100 2 12.980243 3.849576 4.667706 0 0 0
101 2 0.079605 3.727849 9.852126 0 0 0
102 2 12.959017 3.799288 15.093273 0 0 0
103 2 4.868841 0.852187 4.512897 0 0 0
104 2 3.363761 1.904538 1.966717 0 0 0
105 2 4.925479 0.944180 9.957022 0 0 0
106 2 3.319853 1.901613 7.268552 0 0 0
107 2 4.867671 0.849791 15.322554 0 0 0
108 2 3.230089 1.858637 12.400524 0 0 0
109 2 3.250354 3.854413 4.555838 0 0 0
110 2 1.687077 4.601311 2.071455 0 0 0
111 2 3.316605 3.759237 9.803957 0 0 0
112 2 1.735531 4.621898 7.115645 0 0 0
113 2 3.273997 3.774200 15.180739 0 0 0
114 2 1.648885 4.737887 12.520473 0 0 0
115 2 1.649144 6.545899 4.507193 0 0 0
116 2 1.584841 6.573124 9.790647 0 0 0
117 2 1.515082 6.515186 15.246655 0 0 0
118 2 12.979344 9.374974 4.487069 0 0 0
119 2 12.879723 9.338636 9.856880 0 0 0
120 2 0.125999 9.431787 15.236990 0 0 0
121 2 8.218572 0.940186 4.587845 0 0 0
122 2 6.595019 1.817799 1.879727 0 0 0
123 2 8.160244 0.882529 9.800312 0 0 0
124 2 6.437184 1.829724 7.111366 0 0 0
125 2 8.048526 0.975793 15.343153 0 0 0
126 2 6.431858 1.901838 12.699208 0 0 0
127 2 6.493173 3.705236 4.657723 0 0 0
128 2 4.882740 4.604236 2.002686 0 0 0
129 2 6.404058 3.695674 9.917884 0 0 0
130 2 4.952889 4.736762 7.268235 0 0 0
131 2 6.597617 3.851488 15.178679 0 0 0
132 2 4.816229 4.783451 12.548519 0 0 0
133 2 4.969517 6.498086 4.504816 0 0 0
134 2 3.150067 7.516787 1.975432 0 0 0
135 2 4.838703 6.619925 9.894750 0 0 0
136 2 3.301147 7.596775 7.369486 0 0 0
137 2 4.751926 6.667513 15.313523 0 0 0
138 2 3.283739 7.390110 12.700951 0 0 0
139 2 3.217878 9.352586 4.630311 0 0 0
140 2 1.637193 10.415837 2.098709 0 0 0
141 2 3.241520 9.460137 9.873834 0 0 0
142 2 1.506639 10.269360 7.210875 0 0 0
143 2 3.237623 9.372498 15.256004 0 0 0
144 2 1.589388 10.412012 12.476265 0 0 0
145 2 11.430474 1.029557 4.653762 0 0 0
146 2 9.848490 1.775273 2.004112 0 0 0
147 2 11.237565 0.859466 9.879539 0 0 0
148 2 9.673638 1.882937 7.208181 0 0 0
149 2 11.420861 0.957095 15.107851 0 0 0
150 2 9.629600 1.763236 12.451071 0 0 0
151 2 9.740539 3.776225 4.507510 0 0 0
152 2 8.023714 4.645749 1.855484 0 0 0
153 2 9.719235 3.701074 9.950209 0 0 0
154 2 8.046188 4.722250 7.170786 0 0 0
155 2 9.637524 3.844176 15.208944 0 0 0
156 2 8.097630 4.599961 12.566425 0 0 0
157 2 8.018128 6.503148 4.512580 0 0 0
158 2 6.450564 7.465598 2.122001 0 0 0
159 2 8.220001 6.627800 9.774009 0 0 0
160 2 6.474467 7.476849 7.240347 0 0 0
161 2 8.242214 6.503598 15.066495 0 0 0
162 2 6.573195 7.397647 12.695405 0 0 0
163 2 6.573584 9.478812 4.711280 0 0 0
164 2 4.899498 10.422700 2.006014 0 0 0
165 2 6.494212 9.319510 9.812513 0 0 0
166 2 4.869490 10.360037 7.422409 0 0 0
167 2 6.452253 9.312198 15.141443 0 0 0
168 2 4.765306 10.342261 12.511125 0 0 0
169 2 0.100027 1.858524 2.109959 0 0 0
170 2 12.918796 1.941888 7.381370 0 0 0
171 2 12.971537 1.894975 12.420331 0 0 0
172 2 11.301868 4.708637 1.992704 0 0 0
173 2 11.474252 4.724275 7.267759 0 0 0
174 2 11.401765 4.594448 12.404169 0 0 0
175 2 11.432033 6.522948 4.489605 0 0 0
176 2 9.852907 7.399785 1.849145 0 0 0
177 2 11.385786 6.548936 9.758956 0 0 0
178 2 9.625833 7.441298 7.149870 0 0 0
179 2 11.400596 6.557261 15.066970 0 0 0
180 2 9.726120 7.590475 12.570544 0 0 0
181 2 9.802764 9.483312 4.655029 0 0 0
182 2 8.119844 10.319761 2.019799 0 0 0
183 2 9.811597 9.397811 9.979364 0 0 0
184 2 8.102177 10.345636 7.165399 0 0 0
185 2 9.840696 9.319285 15.145087 0 0 0
186 2 8.068012 10.417862 12.452180 0 0 0
187 2 12.886060 7.543674 1.858177 0 0 0
188 2 12.912430 7.524212 7.334310 0 0 0
189 2 0.101326 7.523199 12.664507 0 0 0
190 2 11.412417 10.376799 1.997774 0 0 0
191 2 11.237954 10.244835 7.248428 0 0 0
192 2 11.381889 10.286798 12.596214 0 0 0
