LAMMPS DATA file

192 atoms
0 bonds
0 angles
0 dihedrals
0 impropers

2 atom types
0 bond types
0 angle types

0.0 12.990503 xlo xhi
0.0 11.250148 ylo yhi
0.0 15.845291 zlo zhi

Masses

1 69.723
2 14.0067

Atoms

1 1 1.745664 0.845876 2.594349 0 0 0
2 1 1.631607 0.843142 7.981907 0 0 0
3 1 1.584062 0.850275 13.339041 0 0 0
4 1 12.914470 3.639760 2.752169 0 0 0
5 1 0.046412 3.676211 7.814739 0 0 0
6 1 0.102848 3.655736 13.063174 0 0 0
7 1 4.747639 0.953821 2.580089 0 0 0
8 1 3.254121 1.853012 5.317204 0 0 0
9 1 4.905604 0.902116 8.061925 0 0 0
10 1 3.204367 1.913538 10.407821 0 0 0
11 1 4.965490 0.900428 13.332069 0 0 0
12 1 3.181634 1.779998 15.771135 0 0 0
13 1 3.196443 3.777575 2.661375 0 0 0
14 1 1.673826 4.607386 5.228154 0 0 0
15 1 3.279712 3.830788 7.908226 0 0 0
16 1 1.673307 4.596136 10.417803 0 0 0
17 1 3.332064 3.657986 13.105798 0 0 0
18 1 1.699937 4.728437 15.830238 0 0 0
19 1 1.727217 6.541961 2.685618 0 0 0
20 1 1.742936 6.517998 7.988403 0 0 0
21 1 1.689285 6.491898 13.220518 0 0 0
22 1 12.876478 9.416374 2.688946 0 0 0
23 1 12.895466 9.463625 7.812521 0 0 0
24 1 0.011462 9.270460 13.298635 0 0 0
25 1 8.143746 0.916313 2.681023 0 0 0
26 1 6.460567 1.987564 5.341606 0 0 0
27 1 8.040342 1.011670 7.854511 0 0 0
28 1 6.501227 1.903075 10.401166 0 0 0
29 1 8.190642 0.872798 13.105164 0 0 0
30 1 6.571896 1.823199 0.099825 0 0 0
31 1 6.624507 3.726499 2.761993 0 0 0
32 1 4.879493 4.593548 5.250495 0 0 0
33 1 6.370283 3.840351 7.877486 0 0 0
34 1 4.744651 4.687824 10.540129 0 0 0
35 1 6.586835 3.750237 13.076009 0 0 0
36 1 4.947173 4.785363 0.107748 0 0 0
37 1 4.781804 6.468385 2.676111 0 0 0
38 1 3.142922 7.395172 5.220389 0 0 0
39 1 4.909111 6.581562 7.971766 0 0 0
40 1 3.323620 7.473136 10.424775 0 0 0
41 1 4.854291 6.626787 13.137013 0 0 0
42 1 3.308421 7.410135 15.736117 0 0 0
43 1 3.358045 9.439999 2.723805 0 0 0
44 1 1.721891 10.404812 5.412751 0 0 0
45 1 3.222684 9.327723 8.002347 0 0 0
46 1 1.739169 10.262948 10.517153 0 0 0
47 1 3.188649 9.369123 13.344904 0 0 0
48 1 1.520408 10.321786 15.778740 0 0 0
49 1 11.276147 0.920105 2.579613 0 0 0
50 1 9.757557 1.804074 5.186005 0 0 0
51 1 11.383708 1.029456 7.980481 0 0 0
52 1 9.843034 1.929738 10.540446 0 0 0
53 1 11.267573 1.036352 13.229550 0 0 0
54 1 9.698970 1.828487 15.841171 0 0 0
55 1 9.832512 3.850363 2.745830 0 0 0
56 1 8.130496 4.692212 5.284563 0 0 0
57 1 9.775354 3.700286 7.924071 0 0 0
58 1 8.074897 4.636974 10.517787 0 0 0
59 1 9.869275 3.807050 13.181856 0 0 0
60 1 8.208959 4.687937 0.011092 0 0 0
61 1 8.182198 6.511361 2.599420 0 0 0
62 1 6.561113 7.498674 5.328613 0 0 0
63 1 8.223508 6.525311 7.852451 0 0 0
64 1 6.525909 7.428698 10.466765 0 0 0
65 1 8.198696 6.474573 13.255061 0 0 0
66 1 6.416010 7.471223 0.006338 0 0 0
67 1 6.430559 9.424474 2.578663 0 0 0
68 1 4.751277 10.382762 5.132131 0 0 0
69 1 6.442640 9.330985 7.928666 0 0 0
70 1 4.772711 10.379049 10.558826 0 0 0
71 1 6.424583 9.449675 13.076484 0 0 0
72 1 5.001214 10.370724 0.000000 0 0 0
73 1 12.984398 1.823874 5.423051 0 0 0
74 1 12.943608 1.864487 10.568650 0 0 0
75 1 0.074046 1.855262 0.123593 0 0 0
76 1 11.268092 4.771413 5.324335 0 0 0
77 1 11.348893 4.605923 10.405444 0 0 0
78 1 11.331746 4.578923 15.830713 0 0 0
79 1 11.270950 6.640175 2.780373 0 0 0
80 1 9.663895 7.553575 5.135459 0 0 0
81 1 11.370458 6.476823 7.962417 0 0 0
82 1 9.655192 7.401473 10.576573 0 0 0
83 1 11.274328 6.532961 13.104214 0 0 0
84 1 9.612972 7.569887 0.122009 0 0 0
85 1 9.727419 9.344936 2.592606 0 0 0
86 1 8.063985 10.388049 5.427012 0 0 0
87 1 9.668702 9.412437 7.898402 0 0 0
88 1 8.096461 10.390637 10.558826 0 0 0
89 1 9.672469 9.422787 13.177419 0 0 0
90 1 8.097240 10.409650 15.728035 0 0 0
91 1 12.865794 7.483036 5.417822 0 0 0
92 1 0.059756 7.457836 10.448702 0 0 0
93 1 0.127307 7.579450 0.049120 0 0 0
94 1 11.306804 10.403237 5.202009 0 0 0
95 1 11.458533 10.294448 10.426677 0 0 0
96 1 11.479838 10.385462 0.131516 0 0 0
97 2 1.659407 1.046984 4.668023 0 0 0
98 2 1.605366 0.887344 10.013114 0 0 0
99 2 1.735401 1.039795 15.085034 0 0 0
100 2 12.907461 3.850813 4.668815 0 0 0
101 2 0.012066 3.783087 10.064136 0 0 0
102 2 0.081347 3.843051 15.209261 0 0 0
103 2 4.822854 0.924897 4.552827 0 0 0
104 2 3.154744 1.935138 2.020750 0 0 0
105 2 4.798172 0.930612 10.002181 0 0 0
106 2 3.269969 1.968101 7.347778 0 0 0
107 2 4.951850 0.988584 15.300054 0 0 0
108 2 3.277764 1.900600 12.394345 0 0 0
109 2 3.263994 3.829663 4.611772 0 0 0
110 2 1.581854 4.594223 2.111227 0 0 0
111 2 3.233206 3.838551 9.917409 0 0 0
112 2 1.611602 4.578248 7.194396 0 0 0
113 2 3.325179 3.683749 15.235881 0 0 0
114 2 1.674086 4.596923 12.625528 0 0 0
115 2 1.747482 6.620487 4.533971 0 0 0
116 2 1.539375 6.655025 9.835806 0 0 0
117 2 1.543142 6.548036 15.321287 0 0 0
118 2 12.909996 9.422112 4.710646 0 0 0
119 2 12.931306 9.328960 10.054946 0 0 0
120 2 12.916043 9.348198 15.243645 0 0 0
121 2 8.086328 0.978718 4.777672 0 0 0
122 2 6.539160 1.919500 1.906188 0 0 0
123 2 8.215844 0.999744 9.794766 0 0 0
124 2 6.431079 1.887887 7.271087 0 0 0
125 2 8.242734 1.000487 15.109118 0 0 0
126 2 6.388340 1.943351 12.614119 0 0 0
127 2 6.605801 3.728074 4.549500 0 0 0
128 2 4.933793 4.666336 1.998566 0 0 0
129 2 6.406656 3.855763 9.929610 0 0 0
130 2 4.775309 4.694574 7.184730 0 0 0
131 2 6.588783 3.844513 15.217500 0 0 0
132 2 4.830129 4.798751 12.607147 0 0 0
133 2 4.788040 6.503148 4.701932 0 0 0
134 2 3.262045 7.396522 2.004271 0 0 0
135 2 4.994848 6.609575 10.056531 0 0 0
136 2 3.351420 7.518137 7.335577 0 0 0
137 2 4.960683 6.604962 15.083607 0 0 0
138 2 3.154224 7.465373 12.648820 0 0 0
139 2 3.119020 9.316135 4.478671 0 0 0
140 2 1.669799 10.391762 2.071455 0 0 0
141 2 3.267501 9.323110 10.040685 0 0 0
142 2 1.711239 10.409425 7.390402 0 0 0
143 2 3.316346 9.399386 15.268997 0 0 0
144 2 1.571331 10.362399 12.676866 0 0 0
145 2 11.248217 0.902071 4.544112 0 0 0
146 2 9.631289 1.863475 1.850096 0 0 0
147 2 11.471654 0.926506 9.917567 0 0 0
148 2 9.865378 1.942226 7.275682 0 0 0
149 2 11.319795 1.013605 15.051442 0 0 0
150 2 9.666363 1.826462 12.623468 0 0 0
151 2 9.761194 3.777912 4.549975 0 0 0
152 2 8.033197 4.628873 1.856593 0 0 0
153 2 9.835110 3.835401 9.969381 0 0 0
154 2 8.050605 4.713587 7.208181 0 0 0
155 2 9.730407 3.674298 15.104048 0 0 0
156 2 8.000331 4.642149 12.541231 0 0 0
157 2 8.078404 6.636575 4.513848 0 0 0
158 2 6.388080 7.591488 2.114079 0 0 0
159 2 8.050085 6.564349 9.924856 0 0 0
160 2 6.531235 7.516449 7.277900 0 0 0
161 2 8.227925 6.453648 15.097868 0 0 0
162 2 6.516816 7.554362 12.558027 0 0 0
163 2 6.614245 9.484437 4.721580 0 0 0
164 2 4.930416 10.235272 2.096807 0 0 0
165 2 6.378727 9.407599 9.890313 0 0 0
166 2 4.745041 10.233472 7.305313 0 0 0
167 2 6.607879 9.406361 15.323664 0 0 0
168 2 4.934053 10.285336 12.505737 0 0 0
169 2 0.110419 1.854362 1.832825 0 0 0
170 2 12.883461 1.921300 7.394522 0 0 0
171 2 0.085737 1.871687 12.478325 0 0 0
172 2 11.357467 4.733275 2.069553 0 0 0
173 2 11.494387 4.736987 7.254291 0 0 0
174 2 11.370328 4.654974 12.544717 0 0 0
175 2 11.421510 6.634212 4.702248 0 0 0
176 2 9.859272 7.466611 2.039289 0 0 0
177 2 11.467497 6.605187 9.992040 0 0 0
178 2 9.756517 7.402823 7.291686 0 0 0
179 2 11.288617 6.566712 15.333646 0 0 0
180 2 9.643760 7.605550 12.664032 0 0 0
181 2 9.627652 9.444949 4.555521 0 0 0
182 2 7.993836 10.279935 2.028197 0 0 0
183 2 9.707024 9.378124 10.066830 0 0 0
184 2 8.175833 10.396937 7.244625 0 0 0
185 2 9.733654 9.292847 15.061107 0 0 0
186 2 8.114258 10.409425 12.532833 0 0 0
187 2 12.941269 7.442536 2.125646 0 0 0
188 2 12.949583 7.583162 7.404187 0 0 0
189 2 12.948284 7.448611 12.558027 0 0 0
190 2 11.392282 10.327186 1.867051 0 0 0
191 2 11.384098 10.306486 7.194871 0 0 0
192 2 11.492438 10.248098 12.470402 0 0 0
