LAMMPS DATA file

192 atoms
0 bonds
0 angles
0 dihedrals
0 impropers

2 atom types
0 bond types
0 angle types

0.0 12.990503 xlo xhi
0.0 11.250148 ylo yhi
0.0 15.845291 zlo zhi

Masses

1 69.723
2 14.0067

Atoms

1 1 1.726438 1.017407 2.663593 0 0 0
2 1 1.507548 0.936687 7.998069 0 0 0
3 1 1.727087 0.844087 13.201345 0 0 0
4 1 12.864999 3.682174 2.595617 0 0 0
5 1 0.058855 3.781512 8.069531 0 0 0
6 1 12.961527 3.665298 13.316541 0 0 0
7 1 4.947303 1.017036 2.739175 0 0 0
8 1 3.373374 1.835462 5.195988 0 0 0
9 1 4.790768 0.829833 7.843102 0 0 0
10 1 3.186830 1.968663 10.552964 0 0 0
11 1 5.000954 0.831228 13.322086 0 0 0
12 1 3.240091 1.797436 0.042782 0 0 0
13 1 3.208914 3.660348 2.589754 0 0 0
14 1 1.666162 4.608511 5.349212 0 0 0
15 1 3.246716 3.743262 7.939758 0 0 0
16 1 1.660576 4.635061 10.556608 0 0 0
17 1 3.341547 3.793437 13.204198 0 0 0
18 1 1.691104 4.597148 15.828970 0 0 0
19 1 1.686947 6.652325 2.508943 0 0 0
20 1 1.572630 6.478285 7.917099 0 0 0
21 1 1.691753 6.600012 13.237314 0 0 0
22 1 12.909852 9.357986 2.779422 0 0 0
23 1 12.895692 9.388586 7.773858 0 0 0
24 1 12.911404 9.377111 13.174884 0 0 0
25 1 8.230523 0.961663 2.597518 0 0 0
26 1 6.380675 1.884737 5.284563 0 0 0
27 1 8.222079 0.990384 7.947998 0 0 0
28 1 6.587614 1.785286 10.575781 0 0 0
29 1 8.067752 1.035812 13.173458 0 0 0
30 1 6.371972 1.815549 0.072888 0 0 0
31 1 6.597877 3.801988 2.568046 0 0 0
32 1 4.947693 4.626286 5.291059 0 0 0
33 1 6.450954 3.788825 7.980481 0 0 0
34 1 4.890665 4.732375 10.685589 0 0 0
35 1 6.492654 3.697024 13.258705 0 0 0
36 1 4.959384 4.794138 0.112502 0 0 0
37 1 4.842470 6.465573 2.663435 0 0 0
38 1 3.290754 7.448048 5.318472 0 0 0
39 1 4.943016 6.595399 7.963526 0 0 0
40 1 3.192936 7.565050 10.491642 0 0 0
41 1 4.991081 6.544774 13.182173 0 0 0
42 1 3.210083 7.449736 0.137854 0 0 0
43 1 3.199691 9.320635 2.492147 0 0 0
44 1 1.570552 10.225710 5.353965 0 0 0
45 1 3.186181 9.451925 7.999495 0 0 0
46 1 1.560289 10.355874 10.429846 0 0 0
47 1 3.303875 9.407486 13.320819 0 0 0
48 1 1.589258 10.237185 15.738176 0 0 0
49 1 11.351102 0.900698 2.579613 0 0 0
50 1 9.638304 1.878325 5.132131 0 0 0
51 1 11.370458 0.833546 7.879388 0 0 0
52 1 9.764701 1.973051 10.404968 0 0 0
53 1 11.318106 0.973273 13.145412 0 0 0
54 1 9.701308 1.939301 15.753546 0 0 0
55 1 9.629340 3.848338 2.495475 0 0 0
56 1 8.004618 4.692549 5.427170 0 0 0
57 1 9.625313 3.739437 8.009794 0 0 0
58 1 8.205971 4.616048 10.530146 0 0 0
59 1 9.846931 3.726162 13.226698 0 0 0
60 1 8.073858 4.637086 15.795219 0 0 0
61 1 8.153100 6.549949 2.686886 0 0 0
62 1 6.490185 7.474373 5.236552 0 0 0
63 1 8.237668 6.486610 7.910128 0 0 0
64 1 6.616323 7.596325 10.403859 0 0 0
65 1 7.994356 6.548486 13.057153 0 0 0
66 1 6.587874 7.572700 15.833565 0 0 0
67 1 6.534873 9.320185 2.691164 0 0 0
68 1 4.810643 10.393562 5.256200 0 0 0
69 1 6.598916 9.468800 8.042277 0 0 0
70 1 4.876115 10.340911 10.434124 0 0 0
71 1 6.369114 9.373624 13.168863 0 0 0
72 1 5.000564 10.425175 15.775413 0 0 0
73 1 0.002598 1.952576 5.300725 0 0 0
74 1 0.003897 1.768411 10.403701 0 0 0
75 1 0.045467 1.954713 0.107748 0 0 0
76 1 11.433462 4.627073 5.283771 0 0 0
77 1 11.370847 4.715612 10.559619 0 0 0
78 1 11.318496 4.582073 15.696028 0 0 0
79 1 11.365911 6.462198 2.752169 0 0 0
80 1 9.699879 7.482811 5.118663 0 0 0
81 1 11.343307 6.606200 7.894282 0 0 0
82 1 9.670780 7.584625 10.669902 0 0 0
83 1 11.320314 6.535999 13.115305 0 0 0
84 1 9.856025 7.424760 0.034860 0 0 0
85 1 9.649346 9.297798 2.750267 0 0 0
86 1 8.040472 10.416287 5.233224 0 0 0
87 1 9.614142 9.455187 8.027383 0 0 0
88 1 8.129587 10.307161 10.426518 0 0 0
89 1 9.711570 9.380374 13.348073 0 0 0
90 1 8.103086 10.382874 0.120424 0 0 0
91 1 0.085737 7.497886 5.361096 0 0 0
92 1 12.864106 7.466048 10.467557 0 0 0
93 1 0.033775 7.462111 15.744673 0 0 0
94 1 11.461001 10.361612 5.222608 0 0 0
95 1 11.482566 10.332924 10.536643 0 0 0
96 1 11.290046 10.242697 15.684778 0 0 0
97 2 1.713967 0.888109 4.595927 0 0 0
98 2 1.680192 1.016451 9.891423 0 0 0
99 2 1.679282 1.024889 15.232236 0 0 0
100 2 0.126455 3.676661 4.667547 0 0 0
101 2 0.047969 3.675198 9.797619 0 0 0
102 2 12.897607 3.658436 15.322871 0 0 0
103 2 4.963282 0.905367 4.497686 0 0 0
104 2 3.203978 1.777748 1.855642 0 0 0
105 2 4.929376 0.917416 9.915191 0 0 0
106 2 3.187869 1.925350 7.384856 0 0 0
107 2 4.787390 0.914075 15.159665 0 0 0
108 2 3.253472 1.801824 12.523008 0 0 0
109 2 3.118890 3.843501 4.605434 0 0 0
110 2 1.685258 4.597598 1.854374 0 0 0
111 2 3.321022 3.845301 9.822971 0 0 0
112 2 1.611472 4.621673 7.143374 0 0 0
113 2 3.140064 3.860938 15.171866 0 0 0
114 2 1.559900 4.739237 12.513660 0 0 0
115 2 1.646676 6.624987 4.694009 0 0 0
116 2 1.739948 6.621050 9.805700 0 0 0
117 2 1.623943 6.517098 15.305442 0 0 0
118 2 0.042419 9.417162 4.505450 0 0 0
119 2 0.028580 9.344148 9.878746 0 0 0
120 2 12.910460 9.449450 15.331745 0 0 0
121 2 8.223638 0.960144 4.602898 0 0 0
122 2 6.367555 1.773586 1.992545 0 0 0
123 2 8.114518 0.827887 9.896176 0 0 0
124 2 6.372102 1.935588 7.246368 0 0 0
125 2 8.238967 0.952606 15.308769 0 0 0
126 2 6.514218 1.869775 12.579259 0 0 0
127 2 6.608919 3.640435 4.557581 0 0 0
128 2 4.761149 4.725625 2.026771 0 0 0
129 2 6.389639 3.788037 9.784625 0 0 0
130 2 4.905993 4.613686 7.207230 0 0 0
131 2 6.453682 3.828538 15.102146 0 0 0
132 2 4.953279 4.703462 12.577516 0 0 0
133 2 4.914437 6.487735 4.613198 0 0 0
134 2 3.211252 7.414073 1.911893 0 0 0
135 2 4.935612 6.587187 9.856405 0 0 0
136 2 3.208784 7.494511 7.224977 0 0 0
137 2 4.930935 6.560636 15.050491 0 0 0
138 2 3.373244 7.403948 12.516195 0 0 0
139 2 3.310240 9.418962 4.472333 0 0 0
140 2 1.635374 10.289948 1.925678 0 0 0
141 2 3.243859 9.487250 10.053203 0 0 0
142 2 1.705913 10.417637 7.217054 0 0 0
143 2 3.347133 9.346623 15.090579 0 0 0
144 2 1.559770 10.330786 12.539804 0 0 0
145 2 11.426706 1.010376 4.719678 0 0 0
146 2 9.705205 1.795299 1.876558 0 0 0
147 2 11.330707 0.936147 9.907268 0 0 0
148 2 9.724301 1.782023 7.352532 0 0 0
149 2 11.368379 1.034102 15.207359 0 0 0
150 2 9.671170 1.917138 12.480543 0 0 0
151 2 9.837318 3.700061 4.671984 0 0 0
152 2 8.124261 4.736087 1.982721 0 0 0
153 2 9.671689 3.730212 9.838658 0 0 0
154 2 8.077105 4.730800 7.339222 0 0 0
155 2 9.766390 3.652248 15.107534 0 0 0
156 2 8.025533 4.755888 12.646126 0 0 0
157 2 8.163622 6.544211 4.582775 0 0 0
158 2 6.394835 7.407660 1.887491 0 0 0
159 2 8.227795 6.624537 10.019294 0 0 0
160 2 6.624247 7.556050 7.125786 0 0 0
161 2 7.994486 6.632187 15.249349 0 0 0
162 2 6.605281 7.576862 12.574823 0 0 0
163 2 6.564881 9.455750 4.593550 0 0 0
164 2 4.772711 10.300073 1.897315 0 0 0
165 2 6.396524 9.277772 9.908377 0 0 0
166 2 4.840132 10.237410 7.363623 0 0 0
167 2 6.365606 9.377674 15.121636 0 0 0
168 2 4.820906 10.346649 12.536002 0 0 0
169 2 0.032476 1.849862 1.915854 0 0 0
170 2 12.898660 1.878775 7.273939 0 0 0
171 2 0.012991 1.867975 12.594471 0 0 0
172 2 11.336293 4.621336 1.839797 0 0 0
173 2 11.470355 4.586460 7.202001 0 0 0
174 2 11.253023 4.596361 12.694930 0 0 0
175 2 11.374485 6.642538 4.664220 0 0 0
176 2 9.811857 7.408110 1.956735 0 0 0
177 2 11.490360 6.456573 9.790963 0 0 0
178 2 9.621156 7.438148 7.152723 0 0 0
179 2 11.434501 6.460735 15.098660 0 0 0
180 2 9.866287 7.448048 12.513501 0 0 0
181 2 9.628691 9.308935 4.735999 0 0 0
182 2 8.149462 10.365099 1.872280 0 0 0
183 2 9.869145 9.413787 10.033080 0 0 0
184 2 8.052683 10.338774 7.244150 0 0 0
185 2 9.713259 9.464862 15.299737 0 0 0
186 2 8.130886 10.379949 12.421599 0 0 0
187 2 12.949843 7.509249 1.968619 0 0 0
188 2 12.886189 7.525337 7.313711 0 0 0
189 2 0.020785 7.485286 12.606038 0 0 0
190 2 11.286409 10.404025 2.140382 0 0 0
191 2 11.481916 10.272173 7.134184 0 0 0
192 2 11.240163 10.361049 12.676391 0 0 0
