LAMMPS DATA file

192 atoms
0 bonds
0 angles
0 dihedrals
0 impropers

2 atom types
0 bond types
0 angle types

0.0 12.990503 xlo xhi
0.0 11.250148 ylo yhi
0.0 15.845291 zlo zhi

Masses

1 69.723
2 14.0067

Atoms

1 1 1.656809 0.944270 2.639984 0 0 0
2 1 1.676165 0.909091 7.953227 0 0 0
3 1 1.573799 0.845910 13.250624 0 0 0
4 1 12.868024 3.724024 2.499753 0 0 0
5 1 12.936443 3.685549 7.987453 0 0 0
6 1 0.053269 3.798500 13.154919 0 0 0
7 1 4.883520 0.905524 2.775144 0 0 0
8 1 3.233336 1.787424 5.391994 0 0 0
9 1 4.750757 0.875239 7.802380 0 0 0
10 1 3.196313 1.819711 10.631239 0 0 0
11 1 4.907163 1.044441 13.145412 0 0 0
12 1 3.226971 1.870675 0.125178 0 0 0
13 1 3.266332 3.733137 2.620970 0 0 0
14 1 1.740987 4.706275 5.241939 0 0 0
15 1 3.262695 3.859476 8.007101 0 0 0
16 1 1.516771 4.660261 10.643440 0 0 0
17 1 3.169553 3.716936 13.109443 0 0 0
18 1 1.494817 4.618186 15.824058 0 0 0
19 1 1.671098 6.555349 2.517658 0 0 0
20 1 1.702665 6.467148 7.797784 0 0 0
21 1 1.720202 6.604287 13.202771 0 0 0
22 1 0.030269 9.449900 2.480263 0 0 0
23 1 0.005719 9.348986 7.777344 0 0 0
24 1 0.055680 9.437749 13.267579 0 0 0
25 1 8.020337 0.897829 2.751376 0 0 0
26 1 6.540718 1.816336 5.126902 0 0 0
27 1 8.057749 0.993433 7.895233 0 0 0
28 1 6.612166 1.781573 10.404810 0 0 0
29 1 8.148813 0.873045 13.279304 0 0 0
30 1 6.550331 1.854024 15.758300 0 0 0
31 1 6.502916 3.815825 2.721429 0 0 0
32 1 4.838443 4.673199 5.430498 0 0 0
33 1 6.598136 3.803000 7.828683 0 0 0
34 1 4.759461 4.595011 10.482769 0 0 0
35 1 6.404708 3.719524 13.256329 0 0 0
36 1 4.768034 4.774675 15.829445 0 0 0
37 1 4.880532 6.468385 2.520827 0 0 0
38 1 3.126035 7.449173 5.358877 0 0 0
39 1 4.985365 6.453535 7.779087 0 0 0
40 1 3.291144 7.514199 10.474529 0 0 0
41 1 4.973414 6.553999 13.232244 0 0 0
42 1 3.199431 7.417898 0.129931 0 0 0
43 1 3.366619 9.485225 2.547447 0 0 0
44 1 1.589518 10.360599 5.127061 0 0 0
45 1 3.272697 9.340886 7.899670 0 0 0
46 1 1.531840 10.239885 10.584337 0 0 0
47 1 3.226581 9.330760 13.184708 0 0 0
48 1 1.598871 10.400875 15.814709 0 0 0
49 1 11.429305 0.885195 2.554419 0 0 0
50 1 9.655971 1.899138 5.312767 0 0 0
51 1 11.477759 1.040616 8.012805 0 0 0
52 1 9.772106 1.962363 10.564055 0 0 0
53 1 11.357207 0.880403 13.280730 0 0 0
54 1 9.767559 1.763573 0.042782 0 0 0
55 1 9.861221 3.749787 2.668505 0 0 0
56 1 8.174534 4.589273 5.175706 0 0 0
57 1 9.841086 3.814363 8.056221 0 0 0
58 1 8.067103 4.767925 10.658810 0 0 0
59 1 9.828745 3.735499 13.211803 0 0 0
60 1 8.226496 4.709537 15.683510 0 0 0
61 1 8.059958 6.480985 2.701464 0 0 0
62 1 6.376129 7.485849 5.333366 0 0 0
63 1 8.132445 6.490098 7.785742 0 0 0
64 1 6.413931 7.470548 10.694620 0 0 0
65 1 8.170117 6.487510 13.285642 0 0 0
66 1 6.472648 7.547049 15.786663 0 0 0
67 1 6.508502 9.486800 2.688312 0 0 0
68 1 4.972505 10.280723 5.255408 0 0 0
69 1 6.555787 9.486350 7.909811 0 0 0
70 1 4.827661 10.336299 10.644549 0 0 0
71 1 6.465503 9.308485 13.163000 0 0 0
72 1 4.758421 10.297373 0.053874 0 0 0
73 1 0.001299 1.923888 5.213259 0 0 0
74 1 0.053261 1.968438 10.623317 0 0 0
75 1 12.895153 1.912300 15.800448 0 0 0
76 1 11.367340 4.664874 5.422258 0 0 0
77 1 11.266793 4.701324 10.547735 0 0 0
78 1 11.278095 4.693224 15.782702 0 0 0
79 1 11.439827 6.464223 2.674210 0 0 0
80 1 9.778471 7.405860 5.385973 0 0 0
81 1 11.460742 6.620825 8.055904 0 0 0
82 1 9.781199 7.611738 10.632824 0 0 0
83 1 11.251724 6.452185 13.303864 0 0 0
84 1 9.700009 7.448161 15.715676 0 0 0
85 1 9.660128 9.348986 2.742186 0 0 0
86 1 8.187005 10.422250 5.343190 0 0 0
87 1 9.702607 9.383524 7.994583 0 0 0
88 1 8.230653 10.228972 10.469617 0 0 0
89 1 9.698190 9.338748 13.315273 0 0 0
90 1 8.164661 10.203997 0.000000 0 0 0
91 1 0.002598 7.476736 5.409582 0 0 0
92 1 0.127307 7.512399 10.580534 0 0 0
93 1 12.920874 7.567187 15.756715 0 0 0
94 1 11.385786 10.339561 5.261587 0 0 0
95 1 11.432812 10.327411 10.646134 0 0 0
96 1 11.427486 10.417412 0.077642 0 0 0
97 2 1.641220 0.959941 4.655980 0 0 0
98 2 1.743715 0.924380 9.969857 0 0 0
99 2 1.555223 0.998394 15.082815 0 0 0
100 2 12.881035 3.707486 4.571366 0 0 0
101 2 12.906560 3.692861 10.064612 0 0 0
102 2 0.028919 3.746187 15.109435 0 0 0
103 2 4.994589 0.985985 4.689889 0 0 0
104 2 3.163188 1.868312 2.082863 0 0 0
105 2 4.769983 1.003884 10.025474 0 0 0
106 2 3.143052 1.777298 7.128479 0 0 0
107 2 4.859747 1.022886 15.142393 0 0 0
108 2 3.231128 1.792036 12.598274 0 0 0
109 2 3.257369 3.801650 4.510520 0 0 0
110 2 1.726178 4.678149 1.859603 0 0 0
111 2 3.221905 3.832926 10.053678 0 0 0
112 2 1.499494 4.787726 7.401652 0 0 0
113 2 3.276465 3.747874 15.172975 0 0 0
114 2 1.597052 4.609298 12.667042 0 0 0
115 2 1.620046 6.643550 4.699396 0 0 0
116 2 1.634855 6.592024 9.835647 0 0 0
117 2 1.647715 6.645013 15.325407 0 0 0
118 2 0.117207 9.277660 4.768482 0 0 0
119 2 12.989630 9.277885 9.799045 0 0 0
120 2 12.937523 9.300610 15.265036 0 0 0
121 2 8.217662 1.016586 4.681491 0 0 0
122 2 6.572805 1.785174 1.993338 0 0 0
123 2 8.004358 1.008081 9.859891 0 0 0
124 2 6.580729 1.925688 7.216421 0 0 0
125 2 8.044109 0.901474 15.177728 0 0 0
126 2 6.502656 1.852787 12.629489 0 0 0
127 2 6.372361 3.721887 4.527792 0 0 0
128 2 4.838183 4.649461 1.833617 0 0 0
129 2 6.543316 3.788825 10.014382 0 0 0
130 2 4.854941 4.718087 7.320207 0 0 0
131 2 6.457839 3.709174 15.250617 0 0 0
132 2 4.748419 4.786601 12.589717 0 0 0
133 2 4.776608 6.661213 4.616842 0 0 0
134 2 3.360124 7.606563 1.917756 0 0 0
135 2 4.881571 6.452860 9.800154 0 0 0
136 2 3.209044 7.561562 7.210875 0 0 0
137 2 4.885339 6.535661 15.269790 0 0 0
138 2 3.373634 7.488211 12.414944 0 0 0
139 2 3.143832 9.338298 4.561225 0 0 0
140 2 1.732154 10.313686 2.011243 0 0 0
141 2 3.131101 9.322660 9.998378 0 0 0
142 2 1.633686 10.411562 7.279802 0 0 0
143 2 3.225022 9.479487 15.221937 0 0 0
144 2 1.738519 10.371399 12.426352 0 0 0
145 2 11.310831 0.872843 4.600046 0 0 0
146 2 9.743267 1.951788 2.074782 0 0 0
147 2 11.388384 0.941784 9.845154 0 0 0
148 2 9.792241 1.903750 7.355542 0 0 0
149 2 11.462300 0.830958 15.227166 0 0 0
150 2 9.664545 1.957076 12.685423 0 0 0
151 2 9.833161 3.646286 4.635698 0 0 0
152 2 8.083730 4.590848 1.906347 0 0 0
153 2 9.628301 3.689599 10.046706 0 0 0
154 2 8.198696 4.583648 7.416230 0 0 0
155 2 9.854596 3.647861 15.136531 0 0 0
156 2 8.175313 4.582185 12.468184 0 0 0
157 2 8.068791 6.637700 4.633955 0 0 0
158 2 6.395355 7.418910 1.955943 0 0 0
159 2 8.030599 6.662563 9.791439 0 0 0
160 2 6.424583 7.393597 7.391828 0 0 0
161 2 8.176483 6.495948 15.140017 0 0 0
162 2 6.520323 7.525449 12.412091 0 0 0
163 2 6.411203 9.301623 4.739960 0 0 0
164 2 4.892094 10.245510 2.041666 0 0 0
165 2 6.391198 9.263597 9.928342 0 0 0
166 2 4.834156 10.297373 7.196297 0 0 0
167 2 6.496810 9.321760 15.034012 0 0 0
168 2 4.981858 10.311436 12.461212 0 0 0
169 2 0.100027 1.789561 1.996348 0 0 0
170 2 12.904896 1.979801 7.408941 0 0 0
171 2 12.988295 1.800136 12.616496 0 0 0
172 2 11.433462 4.682987 2.092846 0 0 0
173 2 11.454246 4.703349 7.357602 0 0 0
174 2 11.360325 4.750038 12.675123 0 0 0
175 2 11.485294 6.479635 4.667072 0 0 0
176 2 9.807700 7.430498 1.968302 0 0 0
177 2 11.312650 6.548149 9.965737 0 0 0
178 2 9.678704 7.583837 7.279326 0 0 0
179 2 11.473862 6.554899 15.150316 0 0 0
180 2 9.793151 7.557962 12.679085 0 0 0
181 2 9.629211 9.438874 4.521771 0 0 0
182 2 8.205581 10.229310 1.983672 0 0 0
183 2 9.831083 9.392749 9.837707 0 0 0
184 2 8.083341 10.320323 7.406723 0 0 0
185 2 9.686629 9.406586 15.043994 0 0 0
186 2 8.185836 10.242247 12.552798 0 0 0
187 2 0.023383 7.441411 1.981612 0 0 0
188 2 0.109120 7.469198 7.129588 0 0 0
189 2 0.027280 7.426785 12.591302 0 0 0
190 2 11.329537 10.355649 1.845184 0 0 0
191 2 11.321743 10.337986 7.420983 0 0 0
192 2 11.354869 10.257098 12.403060 0 0 0
