LAMMPS DATA file

64 atoms

1 atom types

0.000000 10.862000 xlo xhi
0.000000 10.862000 ylo yhi
0.000000 10.862000 zlo zhi

Masses

1 28.0855

Atoms

1 1 6.826780 1.417320 1.348350
2 1 9.526130 4.095620 1.430050
3 1 9.552350 1.276280 4.062370
4 1 1.306880 1.343920 1.341350
5 1 4.112940 4.052270 1.359610
6 1 6.752690 6.723500 1.392250
7 1 9.464530 9.432440 1.323960
8 1 4.073300 1.320450 4.040080
9 1 6.760750 4.073100 4.096330
10 1 9.487990 6.816080 4.056600
11 1 6.806790 1.322760 6.750830
12 1 9.518730 4.086590 6.749050
13 1 9.541100 1.354700 9.465110
14 1 1.332090 6.790260 1.400050
15 1 4.037460 9.559820 1.356540
16 1 1.392120 4.072430 4.126650
17 1 4.074640 6.763270 4.118620
18 1 6.801550 9.526990 4.085720
19 1 1.397470 1.359300 6.827350
20 1 4.029350 4.051050 6.858160
21 1 6.740920 6.852770 6.784080
22 1 9.547530 9.550150 6.817100
23 1 4.090000 1.328110 9.500070
24 1 6.835980 4.043360 9.460370
25 1 9.459660 6.789700 9.490440
26 1 1.363980 9.508150 3.969260
27 1 1.337100 6.834860 6.752360
28 1 4.104630 9.513890 6.723460
29 1 1.382490 4.097780 9.538780
30 1 4.069250 6.814320 9.501910
31 1 6.744940 9.482070 9.538670
32 1 1.340570 9.528150 9.512910
33 1 5.453620 0.033151 0.013573
34 1 8.205980 2.704730 -0.032384
35 1 8.153900 -0.023652 2.681620
36 1 -0.114223 -0.018507 -0.000236
37 1 2.738150 2.729240 -0.004549
38 1 5.414100 5.409050 -0.050039
39 1 8.050260 8.056380 0.030690
40 1 2.699460 0.027743 2.649550
41 1 5.410590 2.739770 2.709750
42 1 8.119580 5.422960 2.759320
43 1 5.483020 0.018715 5.398200
44 1 8.165390 2.711370 5.443320
45 1 8.130070 -0.009518 8.201290
46 1 -0.014562 5.422130 0.010611
47 1 2.709700 8.129690 -0.031563
48 1 -0.005315 2.715010 2.764620
49 1 2.756470 5.428840 2.711270
50 1 5.406540 8.150480 2.743240
51 1 0.084946 -0.020840 5.454660
52 1 2.742010 2.683390 5.427560
53 1 5.432710 5.403020 5.487070
54 1 8.216940 8.190900 5.481780
55 1 2.740170 -0.006850 8.109400
56 1 5.451240 2.714650 8.104780
57 1 8.117350 5.439120 8.112870
58 1 -0.026304 8.100480 2.718030
59 1 -0.007503 5.458920 5.437880
60 1 2.735700 8.158310 5.378840
61 1 -0.013902 2.782830 8.157810
62 1 2.648480 5.461160 8.162200
63 1 5.425540 8.163400 8.173310
64 1 0.013257 8.178470 8.153110
