LAMMPS DATA file

192 atoms
0 bonds
0 angles
0 dihedrals
0 impropers

2 atom types
0 bond types
0 angle types

0.0 12.990503 xlo xhi
0.0 11.250148 ylo yhi
0.0 15.845291 zlo zhi

Masses

1 69.723
2 14.0067

Atoms

1 1 1.608224 0.966883 2.544912 0 0 0
2 1 1.660186 1.042911 7.979688 0 0 0
3 1 1.723580 1.033551 13.339992 0 0 0
4 1 0.004648 3.677673 2.737432 0 0 0
5 1 12.873307 3.666648 8.054003 0 0 0
6 1 12.933583 3.850026 13.257279 0 0 0
7 1 4.916646 0.909766 2.752010 0 0 0
8 1 3.262825 1.830737 5.386923 0 0 0
9 1 4.945355 1.043406 8.068739 0 0 0
10 1 3.274516 1.765936 10.481026 0 0 0
11 1 4.822075 0.876150 13.269480 0 0 0
12 1 3.286338 1.971701 0.007923 0 0 0
13 1 3.232557 3.781625 2.546655 0 0 0
14 1 1.506768 4.622461 5.391677 0 0 0
15 1 3.146560 3.854638 7.886676 0 0 0
16 1 1.541323 4.701662 10.530305 0 0 0
17 1 3.322581 3.654836 13.049072 0 0 0
18 1 1.712668 4.602211 0.137854 0 0 0
19 1 1.652912 6.509336 2.697661 0 0 0
20 1 1.630698 6.591574 7.955445 0 0 0
21 1 1.680971 6.460285 13.295783 0 0 0
22 1 12.963082 9.299710 2.761359 0 0 0
23 1 0.101935 9.452712 7.947839 0 0 0
24 1 12.969134 9.387911 13.212912 0 0 0
25 1 8.175833 0.908888 2.552993 0 0 0
26 1 6.539160 1.770773 5.240038 0 0 0
27 1 8.192591 0.902296 7.938015 0 0 0
28 1 6.448096 1.985989 10.408296 0 0 0
29 1 8.059958 0.938037 13.157612 0 0 0
30 1 6.423024 1.849412 0.090318 0 0 0
31 1 6.569168 3.785000 2.590230 0 0 0
32 1 4.829609 4.586910 5.391202 0 0 0
33 1 6.384573 3.791637 7.940550 0 0 0
34 1 4.853512 4.684449 10.614602 0 0 0
35 1 6.418088 3.720424 13.281364 0 0 0
36 1 4.768814 4.718875 0.076057 0 0 0
37 1 4.909371 6.600462 2.664703 0 0 0
38 1 3.310110 7.492036 5.163346 0 0 0
39 1 4.824283 6.640850 7.967171 0 0 0
40 1 3.218787 7.593963 10.566749 0 0 0
41 1 4.782843 6.605975 13.288811 0 0 0
42 1 3.337650 7.490461 15.709496 0 0 0
43 1 3.152925 9.391174 2.674527 0 0 0
44 1 1.674995 10.293661 5.161762 0 0 0
45 1 3.198262 9.422899 7.825989 0 0 0
46 1 1.684608 10.287698 10.406236 0 0 0
47 1 3.286857 9.405349 13.268213 0 0 0
48 1 1.702146 10.353286 15.769075 0 0 0
49 1 11.406831 0.997089 2.569472 0 0 0
50 1 9.825627 1.779998 5.405779 0 0 0
51 1 11.495946 0.919238 7.842943 0 0 0
52 1 9.680523 1.839062 10.649461 0 0 0
53 1 11.402154 0.993141 13.326682 0 0 0
54 1 9.872782 1.982389 15.832139 0 0 0
55 1 9.737032 3.653036 2.573592 0 0 0
56 1 8.228964 4.729450 5.208505 0 0 0
57 1 9.725730 3.720199 7.917258 0 0 0
58 1 8.030080 4.675787 10.689550 0 0 0
59 1 9.636095 3.721324 13.057153 0 0 0
60 1 8.202853 4.756225 0.102994 0 0 0
61 1 8.161154 6.666275 2.666445 0 0 0
62 1 6.593590 7.399447 5.125159 0 0 0
63 1 8.042421 6.580099 8.003139 0 0 0
64 1 6.591901 7.405748 10.668951 0 0 0
65 1 8.230913 6.571099 13.057153 0 0 0
66 1 6.595798 7.423523 0.088734 0 0 0
67 1 6.445238 9.409399 2.754070 0 0 0
68 1 4.779336 10.395699 5.391043 0 0 0
69 1 6.559555 9.412774 8.054003 0 0 0
70 1 4.843639 10.300073 10.468508 0 0 0
71 1 6.572415 9.458337 13.270589 0 0 0
72 1 4.775049 10.221435 15.711081 0 0 0
73 1 12.911261 1.862125 5.218805 0 0 0
74 1 0.037672 1.929288 10.505111 0 0 0
75 1 0.081840 1.819486 0.030106 0 0 0
76 1 11.459313 4.615373 5.277749 0 0 0
77 1 11.421640 4.626961 10.655641 0 0 0
78 1 11.387215 4.795263 0.117255 0 0 0
79 1 11.435280 6.648838 2.580247 0 0 0
80 1 9.800815 7.491811 5.352381 0 0 0
81 1 11.382669 6.542636 7.777819 0 0 0
82 1 9.743007 7.503624 10.563580 0 0 0
83 1 11.368379 6.545111 13.248089 0 0 0
84 1 9.800295 7.537487 15.837843 0 0 0
85 1 9.637914 9.444837 2.602272 0 0 0
86 1 8.085809 10.270935 5.247802 0 0 0
87 1 9.746904 9.326260 7.909177 0 0 0
88 1 7.996564 10.231335 10.437293 0 0 0
89 1 9.745735 9.473862 13.153493 0 0 0
90 1 8.233901 10.268685 15.752596 0 0 0
91 1 12.888917 7.523537 5.293912 0 0 0
92 1 0.027280 7.565950 10.406236 0 0 0
93 1 0.127307 7.407098 0.122009 0 0 0
94 1 11.298620 10.382199 5.312767 0 0 0
95 1 11.309272 10.346649 10.680677 0 0 0
96 1 11.335773 10.395587 0.125178 0 0 0
97 2 1.730595 1.023122 4.536982 0 0 0
98 2 1.497545 0.845707 9.978255 0 0 0
99 2 1.574059 0.872955 15.069188 0 0 0
100 2 12.954990 3.712436 4.661526 0 0 0
101 2 12.863435 3.657423 9.926282 0 0 0
102 2 0.121630 3.809525 15.142552 0 0 0
103 2 4.980039 1.038096 4.573902 0 0 0
104 2 3.183323 1.863475 2.062265 0 0 0
105 2 4.766735 1.000937 9.836123 0 0 0
106 2 3.151106 1.976089 7.368852 0 0 0
107 2 4.774400 0.989518 15.107851 0 0 0
108 2 3.146690 1.814424 12.650246 0 0 0
109 2 3.168903 3.835176 4.709537 0 0 0
110 2 1.721372 4.581173 1.902861 0 0 0
111 2 3.224243 3.730099 9.825665 0 0 0
112 2 1.721501 4.595123 7.320524 0 0 0
113 2 3.182024 3.662823 15.223204 0 0 0
114 2 1.745664 4.742837 12.426828 0 0 0
115 2 1.539505 6.522836 4.496101 0 0 0
116 2 1.692663 6.566037 9.803323 0 0 0
117 2 1.644728 6.498198 15.081389 0 0 0
118 2 0.025786 9.328173 4.622230 0 0 0
119 2 12.912759 9.284860 9.847373 0 0 0
120 2 12.913264 9.453162 15.253311 0 0 0
121 2 8.079314 0.973644 4.590381 0 0 0
122 2 6.506813 1.794061 2.037863 0 0 0
123 2 8.111270 0.923671 9.997269 0 0 0
124 2 6.393796 1.918825 7.128638 0 0 0
125 2 8.140239 0.909203 15.145879 0 0 0
126 2 6.551760 1.919500 12.643116 0 0 0
127 2 6.517335 3.739887 4.528426 0 0 0
128 2 4.784532 4.772538 1.963390 0 0 0
129 2 6.472388 3.750124 9.926124 0 0 0
130 2 4.852213 4.753638 7.241932 0 0 0
131 2 6.422375 3.783987 15.327150 0 0 0
132 2 4.793496 4.753750 12.515086 0 0 0
133 2 4.871958 6.655588 4.597036 0 0 0
134 2 3.283869 7.477749 1.884639 0 0 0
135 2 4.966659 6.650188 9.911705 0 0 0
136 2 3.177087 7.596325 7.173005 0 0 0
137 2 4.915996 6.555911 15.299103 0 0 0
138 2 3.124346 7.489111 12.523959 0 0 0
139 2 3.129932 9.470937 4.773869 0 0 0
140 2 1.555353 10.283873 2.036754 0 0 0
141 2 3.197223 9.472175 9.809819 0 0 0
142 2 1.679023 10.223460 7.208498 0 0 0
143 2 3.322971 9.295097 15.131777 0 0 0
144 2 1.693052 10.267560 12.593203 0 0 0
145 2 11.425667 0.984883 4.679273 0 0 0
146 2 9.702477 1.930638 2.074465 0 0 0
147 2 11.412677 0.866655 9.847056 0 0 0
148 2 9.694553 1.987114 7.358553 0 0 0
149 2 11.418782 1.012705 15.147939 0 0 0
150 2 9.828485 1.935025 12.596372 0 0 0
151 2 9.621027 3.862401 4.714766 0 0 0
152 2 8.074247 4.584660 1.974165 0 0 0
153 2 9.761844 3.756199 9.831211 0 0 0
154 2 8.199476 4.744975 7.333993 0 0 0
155 2 9.826276 3.712436 15.186919 0 0 0
156 2 8.244033 4.787726 12.439504 0 0 0
157 2 8.247541 6.591124 4.494517 0 0 0
158 2 6.481222 7.456486 1.969887 0 0 0
159 2 8.059958 6.503823 10.053520 0 0 0
160 2 6.583587 7.586087 7.403078 0 0 0
161 2 8.236888 6.464110 15.319702 0 0 0
162 2 6.590992 7.390110 12.467550 0 0 0
163 2 6.606970 9.366198 4.610504 0 0 0
164 2 4.760110 10.313348 1.948337 0 0 0
165 2 6.456020 9.264047 9.994259 0 0 0
166 2 4.993679 10.282410 7.247319 0 0 0
167 2 6.591641 9.283060 15.335864 0 0 0
168 2 4.877674 10.273860 12.546776 0 0 0
169 2 0.054560 1.805536 2.006014 0 0 0
170 2 0.031177 1.796761 7.411318 0 0 0
171 2 12.915158 1.959663 12.464856 0 0 0
172 2 11.355908 4.778613 2.013620 0 0 0
173 2 11.247178 4.637424 7.189167 0 0 0
174 2 11.292644 4.727200 12.566583 0 0 0
175 2 11.289527 6.672013 4.477562 0 0 0
176 2 9.781979 7.409460 1.948971 0 0 0
177 2 11.321094 6.470185 9.836123 0 0 0
178 2 9.846282 7.539962 7.267284 0 0 0
179 2 11.356558 6.574024 15.136848 0 0 0
180 2 9.661427 7.413510 12.576882 0 0 0
181 2 9.707673 9.279572 4.573268 0 0 0
182 2 8.143487 10.313011 2.075258 0 0 0
183 2 9.826926 9.464525 9.930877 0 0 0
184 2 7.999552 10.415612 7.394522 0 0 0
185 2 9.652593 9.412549 15.050332 0 0 0
186 2 8.214675 10.327974 12.489733 0 0 0
187 2 12.887489 7.399560 2.135153 0 0 0
188 2 12.885020 7.535124 7.227037 0 0 0
189 2 0.015589 7.578662 12.643433 0 0 0
190 2 11.424628 10.328649 1.949763 0 0 0
191 2 11.464639 10.368137 7.130856 0 0 0
192 2 11.247438 10.391762 12.577199 0 0 0
