LAMMPS DATA file

64 atoms

1 atom types

0.000000 10.862000 xlo xhi
0.000000 10.862000 ylo yhi
0.000000 10.862000 zlo zhi

Masses

1 28.0855

Atoms

1 1 6.740170 1.344880 1.365720
2 1 9.496210 4.106210 1.307510
3 1 9.482170 1.402340 4.075000
4 1 1.388550 1.332450 1.358920
5 1 4.091400 4.065960 1.374220
6 1 6.831630 6.813840 1.316060
7 1 9.569540 9.544060 1.376640
8 1 4.058740 1.392430 4.078470
9 1 6.775850 4.073570 4.036710
10 1 9.537530 6.790950 4.052040
11 1 6.775710 1.330340 6.828900
12 1 9.535650 4.050740 6.794950
13 1 9.475430 1.343720 9.527560
14 1 1.365400 6.811670 1.357920
15 1 4.102270 9.496880 1.400400
16 1 1.340320 4.082450 4.071490
17 1 4.038490 6.813370 4.049970
18 1 6.775850 9.506900 4.065260
19 1 1.340440 1.341920 6.765290
20 1 4.101480 4.079170 6.755940
21 1 6.793730 6.761070 6.796750
22 1 9.451650 9.472330 6.784000
23 1 4.059520 1.381320 9.522340
24 1 6.759120 4.106980 9.523660
25 1 9.525230 6.769970 9.536820
26 1 1.347600 9.477830 4.105820
27 1 1.368540 6.742520 6.786040
28 1 4.038870 9.503310 6.826570
29 1 1.337560 4.054210 9.470640
30 1 4.098870 6.748000 9.502430
31 1 6.836580 9.537320 9.455390
32 1 1.352130 9.496810 9.515680
33 1 5.447020 -0.012822 -0.015812
34 1 8.103670 2.723300 -0.006950
35 1 8.136730 0.005353 2.696870
36 1 0.038905 0.013604 0.017753
37 1 2.703810 2.724680 -0.002891
38 1 5.453080 5.441780 0.019392
39 1 8.213480 8.178310 -0.022643
40 1 2.694720 0.008943 2.781180
41 1 5.432630 2.724620 2.725360
42 1 8.167890 5.444110 2.710460
43 1 5.351290 0.007233 5.462700
44 1 8.086480 2.740150 5.448810
45 1 8.156830 0.033829 8.149520
46 1 0.016417 5.441590 0.001687
47 1 2.748160 8.129280 0.013544
48 1 0.018610 2.736190 2.663410
49 1 2.677630 5.415080 2.697840
50 1 5.462670 8.147720 2.691870
51 1 -0.028209 -0.021937 5.422370
52 1 2.716370 2.713400 5.425730
53 1 5.439690 5.416450 5.418240
54 1 8.155660 8.086600 5.389660
55 1 2.714510 -0.000706 8.152240
56 1 5.401300 2.738890 8.165730
57 1 8.169410 5.423040 8.170260
58 1 0.002902 8.169210 2.722200
59 1 0.000049 5.445980 5.417650
60 1 2.724420 8.141250 5.459110
61 1 -0.038460 2.688450 8.153120
62 1 2.760480 5.393750 8.123160
63 1 5.441250 8.150180 8.147530
64 1 -0.025606 8.113010 8.151800
