LAMMPS DATA file

64 atoms

1 atom types

0.000000 10.862000 xlo xhi
0.000000 10.862000 ylo yhi
0.000000 10.862000 zlo zhi

Masses

1 28.0855

Atoms

1 1 6.777430 1.295660 1.367340
2 1 9.500990 4.084170 1.363300
3 1 9.516290 1.412870 4.026940
4 1 1.403440 1.316570 1.368030
5 1 4.065250 4.021320 1.378850
6 1 6.815970 6.792320 1.323030
7 1 9.566240 9.569550 1.345520
8 1 4.077020 1.378500 4.086340
9 1 6.802530 4.058280 4.072080
10 1 9.515530 6.780270 4.063780
11 1 6.773850 1.359010 6.793970
12 1 9.550470 4.074660 6.803770
13 1 9.503180 1.342090 9.546050
14 1 1.313220 6.801670 1.374290
15 1 4.071790 9.485690 1.392050
16 1 1.340510 4.066100 4.072620
17 1 4.026560 6.830210 4.060690
18 1 6.745480 9.495310 4.040180
19 1 1.414740 1.346520 6.748310
20 1 4.141430 4.080080 6.780850
21 1 6.794500 6.759190 6.808010
22 1 9.454100 9.463140 6.753300
23 1 4.057810 1.375810 9.513210
24 1 6.755320 4.110760 9.535950
25 1 9.498690 6.789450 9.545620
26 1 1.342080 9.503300 4.102610
27 1 1.356210 6.775640 6.806450
28 1 4.025930 9.534950 6.804860
29 1 1.345390 4.091270 9.484750
30 1 4.070090 6.793690 9.537950
31 1 6.811060 9.527050 9.429730
32 1 1.355880 9.498850 9.490360
33 1 5.433710 -0.035819 -0.024571
34 1 8.070520 2.675980 0.014075
35 1 8.154940 0.009463 2.725970
36 1 0.017220 0.023751 -0.007922
37 1 2.687200 2.744550 -0.041284
38 1 5.367710 5.440550 0.031756
39 1 8.164680 8.176810 -0.021864
40 1 2.739350 -0.037877 2.750230
41 1 5.461440 2.710930 2.690900
42 1 8.135800 5.417300 2.726250
43 1 5.426160 -0.009666 5.443450
44 1 8.158530 2.752860 5.479060
45 1 8.182300 0.022692 8.136110
46 1 -0.003970 5.424790 0.000620
47 1 2.719910 8.105890 0.000244
48 1 0.006639 2.725870 2.660860
49 1 2.686430 5.437360 2.685490
50 1 5.429400 8.115370 2.684460
51 1 -0.034780 0.014717 5.440010
52 1 2.742780 2.769960 5.413080
53 1 5.475800 5.448790 5.378890
54 1 8.134430 8.100110 5.413550
55 1 2.703510 0.048035 8.132770
56 1 5.428920 2.772860 8.153990
57 1 8.176840 5.415430 8.213660
58 1 0.011289 8.136630 2.740250
59 1 0.023411 5.419810 5.453830
60 1 2.722910 8.146450 5.457860
61 1 -0.013246 2.684910 8.146770
62 1 2.741600 5.388910 8.140330
63 1 5.437500 8.136480 8.146320
64 1 -0.041881 8.138180 8.150070
