LAMMPS DATA file

192 atoms
0 bonds
0 angles
0 dihedrals
0 impropers

2 atom types
0 bond types
0 angle types

0.0 12.990503 xlo xhi
0.0 11.250148 ylo yhi
0.0 15.845291 zlo zhi

Masses

1 69.723
2 14.0067

Atoms

1 1 1.729945 0.908393 2.507834 0 0 0
2 1 1.589388 0.980349 8.049091 0 0 0
3 1 1.639791 0.957905 13.151274 0 0 0
4 1 12.943479 3.640998 2.608610 0 0 0
5 1 0.111614 3.712661 7.854511 0 0 0
6 1 12.896188 3.776562 13.213388 0 0 0
7 1 4.981598 0.872595 2.740601 0 0 0
8 1 3.217488 1.936151 5.186481 0 0 0
9 1 4.971076 0.925606 8.042119 0 0 0
10 1 3.211122 1.918713 10.586080 0 0 0
11 1 4.954188 0.862088 13.093280 0 0 0
12 1 3.264384 1.891375 0.112502 0 0 0
13 1 3.273087 3.750462 2.573275 0 0 0
14 1 1.588219 4.761175 5.283295 0 0 0
15 1 3.263864 3.805475 7.967329 0 0 0
16 1 1.751250 4.729900 10.588140 0 0 0
17 1 3.314397 3.766550 13.293407 0 0 0
18 1 1.733842 4.748575 15.766698 0 0 0
19 1 1.740078 6.644338 2.663752 0 0 0
20 1 1.533269 6.618012 7.944512 0 0 0
21 1 1.690324 6.464223 13.171556 0 0 0
22 1 0.101313 9.459800 2.774827 0 0 0
23 1 12.947776 9.283622 7.915990 0 0 0
24 1 12.885067 9.458337 13.074425 0 0 0
25 1 8.155438 0.900743 2.577078 0 0 0
26 1 6.587094 1.890587 5.270144 0 0 0
27 1 8.154529 0.882405 7.791763 0 0 0
28 1 6.459008 1.879225 10.448068 0 0 0
29 1 8.021636 1.019218 13.125130 0 0 0
30 1 6.451084 1.826012 0.061797 0 0 0
31 1 6.371712 3.638748 2.502922 0 0 0
32 1 4.817268 4.768488 5.146075 0 0 0
33 1 6.601774 3.670023 7.972558 0 0 0
34 1 4.796873 4.647999 10.559460 0 0 0
35 1 6.366386 3.647748 13.320185 0 0 0
36 1 4.759590 4.708862 15.789357 0 0 0
37 1 4.979000 6.599449 2.563610 0 0 0
38 1 3.219956 7.422960 5.355074 0 0 0
39 1 4.750887 6.670550 7.919001 0 0 0
40 1 3.290624 7.509249 10.538703 0 0 0
41 1 4.845068 6.501236 13.143352 0 0 0
42 1 3.285038 7.550762 15.689690 0 0 0
43 1 3.209434 9.346173 2.514489 0 0 0
44 1 1.538725 10.299061 5.185847 0 0 0
45 1 3.211382 9.417049 8.003139 0 0 0
46 1 1.582113 10.204222 10.450286 0 0 0
47 1 3.192806 9.356973 13.138440 0 0 0
48 1 1.612381 10.275323 15.726768 0 0 0
49 1 11.308493 0.942234 2.731728 0 0 0
50 1 9.869795 1.915338 5.180301 0 0 0
51 1 11.272639 0.953754 7.791446 0 0 0
52 1 9.828615 1.946726 10.645658 0 0 0
53 1 11.435800 0.994761 13.120534 0 0 0
54 1 9.823938 1.858412 0.110917 0 0 0
55 1 9.650515 3.851601 2.525422 0 0 0
56 1 7.999552 4.662174 5.209456 0 0 0
57 1 9.701308 3.785787 7.876535 0 0 0
58 1 8.183887 4.741262 10.504952 0 0 0
59 1 9.812507 3.698036 13.101837 0 0 0
60 1 7.999422 4.663524 0.071304 0 0 0
61 1 8.178561 6.559286 2.518450 0 0 0
62 1 6.543836 7.447148 5.233699 0 0 0
63 1 8.240396 6.450835 7.892222 0 0 0
64 1 6.564101 7.462336 10.402592 0 0 0
65 1 8.218702 6.651988 13.066027 0 0 0
66 1 6.559685 7.391685 15.706961 0 0 0
67 1 6.437314 9.415024 2.578346 0 0 0
68 1 4.752316 10.350586 5.299457 0 0 0
69 1 6.411723 9.381499 8.059707 0 0 0
70 1 4.988743 10.221547 10.643915 0 0 0
71 1 6.476156 9.349548 13.331752 0 0 0
72 1 4.879363 10.249335 15.771927 0 0 0
73 1 12.933345 1.784949 5.237185 0 0 0
74 1 0.059756 1.855487 10.475797 0 0 0
75 1 0.014290 1.776511 15.715042 0 0 0
76 1 11.334344 4.789188 5.145758 0 0 0
77 1 11.471913 4.688049 10.480234 0 0 0
78 1 11.314209 4.711337 15.726926 0 0 0
79 1 11.267963 6.476260 2.487552 0 0 0
80 1 9.628431 7.561900 5.347627 0 0 0
81 1 11.470225 6.493586 7.856887 0 0 0
82 1 9.672859 7.390447 10.433965 0 0 0
83 1 11.405012 6.531049 13.312421 0 0 0
84 1 9.737941 7.422848 15.783811 0 0 0
85 1 9.766910 9.464862 2.714932 0 0 0
86 1 8.176223 10.230210 5.363631 0 0 0
87 1 9.767689 9.485450 7.763717 0 0 0
88 1 8.205581 10.231897 10.699374 0 0 0
89 1 9.702087 9.398711 13.061748 0 0 0
90 1 8.195708 10.262385 15.691908 0 0 0
91 1 0.083139 7.561900 5.159385 0 0 0
92 1 12.892295 7.464023 10.523016 0 0 0
93 1 12.929967 7.395622 15.802350 0 0 0
94 1 11.382279 10.265873 5.124684 0 0 0
95 1 11.309012 10.340799 10.475163 0 0 0
96 1 11.284720 10.374774 0.102994 0 0 0
97 2 1.664343 0.875070 4.652811 0 0 0
98 2 1.742936 0.897852 9.791597 0 0 0
99 2 1.686167 1.033934 15.148573 0 0 0
100 2 12.892146 3.673286 4.743446 0 0 0
101 2 12.987046 3.682624 9.830577 0 0 0
102 2 0.052787 3.810088 15.185968 0 0 0
103 2 4.981598 0.964903 4.539676 0 0 0
104 2 3.331025 1.800699 2.119466 0 0 0
105 2 4.943146 1.032032 9.821703 0 0 0
106 2 3.231388 1.909825 7.425895 0 0 0
107 2 4.754914 0.889617 15.082657 0 0 0
108 2 3.356876 1.787536 12.414151 0 0 0
109 2 3.285168 3.742249 4.595768 0 0 0
110 2 1.704484 4.588823 1.848829 0 0 0
111 2 3.364540 3.767450 10.064770 0 0 0
112 2 1.542882 4.789076 7.314028 0 0 0
113 2 3.226581 3.664061 15.118626 0 0 0
114 2 1.508197 4.580160 12.584488 0 0 0
115 2 1.736960 6.611937 4.483742 0 0 0
116 2 1.717734 6.461410 10.008044 0 0 0
117 2 1.573929 6.647375 15.197377 0 0 0
118 2 12.984919 9.364286 4.576120 0 0 0
119 2 12.963148 9.350336 9.938008 0 0 0
120 2 12.884842 9.351011 15.315899 0 0 0
121 2 8.119194 1.030480 4.519394 0 0 0
122 2 6.441471 1.950776 2.076842 0 0 0
123 2 8.228834 0.872674 9.863218 0 0 0
124 2 6.545135 1.972038 7.246527 0 0 0
125 2 8.147644 0.979764 15.284050 0 0 0
126 2 6.590472 1.862687 12.619189 0 0 0
127 2 6.566829 3.742924 4.665487 0 0 0
128 2 4.920153 4.612448 1.913319 0 0 0
129 2 6.496291 3.683861 9.893799 0 0 0
130 2 4.950421 4.726412 7.193287 0 0 0
131 2 6.369893 3.778025 15.245388 0 0 0
132 2 4.845718 4.774450 12.544083 0 0 0
133 2 4.866372 6.654575 4.568039 0 0 0
134 2 3.190078 7.581362 2.096015 0 0 0
135 2 4.955227 6.582349 10.062235 0 0 0
136 2 3.182803 7.556275 7.207230 0 0 0
137 2 4.746990 6.511811 15.346322 0 0 0
138 2 3.216189 7.610838 12.474205 0 0 0
139 2 3.286727 9.423912 4.695910 0 0 0
140 2 1.685258 10.224922 1.870537 0 0 0
141 2 3.269840 9.378349 9.951635 0 0 0
142 2 1.731244 10.280723 7.245101 0 0 0
143 2 3.324659 9.329410 15.221303 0 0 0
144 2 1.710589 10.219747 12.577358 0 0 0
145 2 11.442425 0.837067 4.564870 0 0 0
146 2 9.627262 1.822862 1.923777 0 0 0
147 2 11.361104 0.989473 9.876845 0 0 0
148 2 9.748074 1.790574 7.318623 0 0 0
149 2 11.347075 1.017970 15.335864 0 0 0
150 2 9.676496 1.932888 12.698891 0 0 0
151 2 9.791592 3.772175 4.618585 0 0 0
152 2 8.021636 4.681524 2.044676 0 0 0
153 2 9.721833 3.716486 9.815048 0 0 0
154 2 8.039952 4.621898 7.147018 0 0 0
155 2 9.776393 3.854188 15.340777 0 0 0
156 2 8.218961 4.741712 12.631707 0 0 0
157 2 8.207660 6.510011 4.571049 0 0 0
158 2 6.615803 7.461998 2.095223 0 0 0
159 2 8.208699 6.550061 10.045280 0 0 0
160 2 6.406916 7.389772 7.374715 0 0 0
161 2 8.078404 6.478398 15.209261 0 0 0
162 2 6.420686 7.534674 12.522850 0 0 0
163 2 6.473687 9.422674 4.759925 0 0 0
164 2 4.908332 10.274423 2.055610 0 0 0
165 2 6.421595 9.334135 9.802531 0 0 0
166 2 4.791547 10.392774 7.164607 0 0 0
167 2 6.420946 9.432012 15.301639 0 0 0
168 2 4.825322 10.299286 12.643591 0 0 0
169 2 0.113017 1.861450 1.878301 0 0 0
170 2 0.077943 1.814311 7.118972 0 0 0
171 2 0.062354 1.836137 12.420331 0 0 0
172 2 11.297061 4.588035 2.080962 0 0 0
173 2 11.353180 4.590060 7.418607 0 0 0
174 2 11.316027 4.622011 12.586390 0 0 0
175 2 11.442945 6.601362 4.536824 0 0 0
176 2 9.789124 7.411035 2.047687 0 0 0
177 2 11.447491 6.667400 10.013114 0 0 0
178 2 9.841865 7.515887 7.400701 0 0 0
179 2 11.262117 6.470748 15.254578 0 0 0
180 2 9.646098 7.530174 12.701268 0 0 0
181 2 9.695332 9.390949 4.564553 0 0 0
182 2 8.076715 10.342036 2.101878 0 0 0
183 2 9.670650 9.348198 9.818851 0 0 0
184 2 8.104125 10.311323 7.351423 0 0 0
185 2 9.652853 9.462500 15.336974 0 0 0
186 2 8.235200 10.289048 12.638679 0 0 0
187 2 0.088335 7.559200 1.951031 0 0 0
188 2 12.950233 7.607463 7.364099 0 0 0
189 2 12.878915 7.537262 12.642957 0 0 0
190 2 11.430344 10.312786 2.068603 0 0 0
191 2 11.383708 10.374324 7.307690 0 0 0
192 2 11.445802 10.322911 12.470244 0 0 0
