LAMMPS DATA file

64 atoms

1 atom types

0.000000 10.862000 xlo xhi
0.000000 10.862000 ylo yhi
0.000000 10.862000 zlo zhi

Masses

1 28.0855

Atoms

1 1 6.767590 1.253710 1.368120
2 1 9.489880 4.032640 1.361390
3 1 9.503160 1.412670 4.046130
4 1 1.396590 1.344370 1.362190
5 1 4.041920 4.058170 1.369450
6 1 6.768540 6.771200 1.336170
7 1 9.541500 9.575390 1.376680
8 1 4.122390 1.366430 4.070460
9 1 6.829930 4.059150 4.073770
10 1 9.498380 6.744340 4.107320
11 1 6.837910 1.399990 6.793040
12 1 9.541750 4.073960 6.862190
13 1 9.497800 1.359390 9.529370
14 1 1.315030 6.753700 1.331270
15 1 4.087360 9.432840 1.337230
16 1 1.317930 4.098880 4.037540
17 1 4.052210 6.814770 4.041840
18 1 6.751560 9.459870 4.045840
19 1 1.376870 1.397100 6.742250
20 1 4.137600 4.125880 6.767280
21 1 6.813850 6.747050 6.818030
22 1 9.484510 9.497700 6.749860
23 1 4.057330 1.400000 9.504600
24 1 6.729340 4.119030 9.578860
25 1 9.493220 6.811140 9.540930
26 1 1.350700 9.522570 4.124990
27 1 1.358570 6.759080 6.841300
28 1 4.077820 9.523880 6.819000
29 1 1.343720 4.090790 9.467230
30 1 4.039950 6.793420 9.535020
31 1 6.790460 9.504060 9.432200
32 1 1.361010 9.518400 9.463010
33 1 5.392510 -0.050329 -0.018894
34 1 8.114300 2.656510 0.044941
35 1 8.174210 0.012180 2.735620
36 1 0.049951 0.033431 0.006986
37 1 2.714060 2.704140 -0.021198
38 1 5.359760 5.463160 0.046056
39 1 8.150810 8.194930 -0.024515
40 1 2.766910 -0.033763 2.726190
41 1 5.460480 2.695590 2.703550
42 1 8.158810 5.417670 2.703080
43 1 5.454050 -0.025811 5.443330
44 1 8.214510 2.735640 5.432810
45 1 8.184130 -0.001100 8.108220
46 1 -0.035756 5.417880 0.003647
47 1 2.687910 8.119990 -0.011314
48 1 0.004302 2.702950 2.676220
49 1 2.662980 5.443780 2.695950
50 1 5.396360 8.115120 2.689850
51 1 -0.029733 0.037206 5.413160
52 1 2.766780 2.765530 5.409840
53 1 5.489880 5.453800 5.373600
54 1 8.080060 8.105970 5.402460
55 1 2.699770 0.030554 8.136330
56 1 5.438120 2.769510 8.153460
57 1 8.144610 5.414820 8.214170
58 1 -0.009485 8.153570 2.747560
59 1 0.015123 5.402460 5.458040
60 1 2.698890 8.168070 5.461810
61 1 0.048010 2.700440 8.134570
62 1 2.736420 5.414580 8.182080
63 1 5.403650 8.135980 8.133560
64 1 -0.032789 8.159980 8.140240
