LAMMPS DATA file

64 atoms

1 atom types

0.000000 10.862000 xlo xhi
0.000000 10.862000 ylo yhi
0.000000 10.862000 zlo zhi

Masses

1 28.0855

Atoms

1 1 6.780480 1.395760 1.348760
2 1 9.481460 4.097050 1.357660
3 1 9.526780 1.309710 4.050520
4 1 1.366400 1.351960 1.368450
5 1 4.061350 4.071120 1.372140
6 1 6.805500 6.783810 1.340970
7 1 9.526830 9.504430 1.333440
8 1 4.089030 1.316830 4.071010
9 1 6.788020 4.067970 4.065220
10 1 9.535670 6.796860 4.048200
11 1 6.793440 1.359630 6.788020
12 1 9.538660 4.054710 6.798980
13 1 9.516550 1.341360 9.472120
14 1 1.336200 6.793310 1.411260
15 1 4.061090 9.523330 1.367180
16 1 1.395870 4.110550 4.076820
17 1 4.041660 6.764100 4.071740
18 1 6.749990 9.517370 4.075610
19 1 1.356930 1.373860 6.787670
20 1 4.059910 4.072660 6.804630
21 1 6.764170 6.803760 6.779990
22 1 9.497220 9.501050 6.787740
23 1 4.095440 1.359280 9.514090
24 1 6.796810 4.049810 9.536410
25 1 9.493710 6.807820 9.491300
26 1 1.360370 9.507000 4.040740
27 1 1.331110 6.771630 6.785520
28 1 4.060050 9.524230 6.742900
29 1 1.385970 4.053950 9.495280
30 1 4.084070 6.778820 9.509470
31 1 6.799810 9.497810 9.513950
32 1 1.335550 9.491910 9.528140
33 1 5.442570 0.024175 -0.030002
34 1 8.154400 2.722680 0.004992
35 1 8.159610 -0.025358 2.662370
36 1 -0.045537 -0.000070 0.019208
37 1 2.727780 2.728810 -0.013974
38 1 5.424780 5.425600 -0.017379
39 1 8.150470 8.142250 0.020990
40 1 2.728650 0.024348 2.722950
41 1 5.388870 2.715480 2.735570
42 1 8.176860 5.432560 2.728260
43 1 5.417280 0.040119 5.442310
44 1 8.129080 2.759080 5.471030
45 1 8.117110 -0.005942 8.181920
46 1 -0.044192 5.418100 -0.004124
47 1 2.692530 8.128820 -0.007874
48 1 -0.013271 2.742020 2.695870
49 1 2.717990 5.448070 2.684800
50 1 5.426130 8.103860 2.712250
51 1 0.039565 -0.023516 5.425510
52 1 2.743960 2.715700 5.406250
53 1 5.468500 5.403160 5.450160
54 1 8.173440 8.121450 5.449760
55 1 2.728500 0.009408 8.137480
56 1 5.420620 2.747450 8.134660
57 1 8.109740 5.432450 8.177660
58 1 -0.007397 8.123170 2.736900
59 1 -0.009652 5.438690 5.429270
60 1 2.703120 8.169620 5.430810
61 1 -0.007514 2.734510 8.161500
62 1 2.703070 5.410140 8.142870
63 1 5.472710 8.143800 8.143220
64 1 0.030151 8.131980 8.164900
