LAMMPS DATA file

64 atoms

1 atom types

0.000000 10.862000 xlo xhi
0.000000 10.862000 ylo yhi
0.000000 10.862000 zlo zhi

Masses

1 28.0855

Atoms

1 1 6.798060 1.368820 1.328430
2 1 9.509930 4.055410 1.368060
3 1 9.537720 1.318660 4.070300
4 1 1.377360 1.350850 1.345170
5 1 4.089910 4.066740 1.394120
6 1 6.790180 6.795790 1.393380
7 1 9.454480 9.439260 1.333950
8 1 4.079500 1.358870 4.050280
9 1 6.782810 4.082270 4.083510
10 1 9.500040 6.800920 4.043750
11 1 6.771450 1.349350 6.769980
12 1 9.491460 4.098210 6.764460
13 1 9.551440 1.355090 9.505090
14 1 1.305870 6.830570 1.398860
15 1 3.996710 9.555380 1.354180
16 1 1.392160 4.046890 4.142820
17 1 4.061270 6.743840 4.082060
18 1 6.814050 9.508740 4.105290
19 1 1.392130 1.371870 6.802870
20 1 4.055600 4.051800 6.815770
21 1 6.748400 6.828550 6.795260
22 1 9.519240 9.542570 6.771180
23 1 4.096470 1.330830 9.496110
24 1 6.829090 4.036360 9.496280
25 1 9.467340 6.781840 9.513600
26 1 1.365550 9.480140 4.028460
27 1 1.354470 6.862630 6.771030
28 1 4.089710 9.498330 6.744260
29 1 1.370920 4.082110 9.557430
30 1 4.050850 6.795690 9.508960
31 1 6.785530 9.510420 9.517550
32 1 1.340170 9.515700 9.480960
33 1 5.419420 -0.013910 -0.043073
34 1 8.121780 2.706480 -0.030185
35 1 8.132900 -0.026079 2.722920
36 1 -0.045088 -0.033125 -0.004703
37 1 2.726090 2.737090 0.012172
38 1 5.429850 5.402610 0.000803
39 1 8.102120 8.122900 0.039272
40 1 2.705490 -0.000260 2.694950
41 1 5.441020 2.711740 2.703070
42 1 8.129000 5.416850 2.709510
43 1 5.484060 0.026325 5.410900
44 1 8.148430 2.727350 5.463250
45 1 8.154590 0.016808 8.160550
46 1 -0.000839 5.423940 0.003971
47 1 2.673950 8.156290 -0.049922
48 1 0.017459 2.722390 2.719300
49 1 2.708260 5.416690 2.718430
50 1 5.442710 8.140690 2.721040
51 1 0.063718 -0.000775 5.430650
52 1 2.754730 2.729970 5.406640
53 1 5.414430 5.443250 5.438460
54 1 8.200130 8.136170 5.473670
55 1 2.741930 0.037870 8.108120
56 1 5.477450 2.717170 8.131060
57 1 8.138090 5.431760 8.158260
58 1 -0.015340 8.123330 2.717550
59 1 -0.002305 5.458830 5.456000
60 1 2.743970 8.129050 5.424670
61 1 -0.018591 2.720260 8.175210
62 1 2.673030 5.438470 8.105450
63 1 5.423630 8.144180 8.172290
64 1 -0.019946 8.157250 8.152310
