LAMMPS DATA file

64 atoms

1 atom types

0.000000 10.862000 xlo xhi
0.000000 10.862000 ylo yhi
0.000000 10.862000 zlo zhi

Masses

1 28.0855

Atoms

1 1 6.857850 1.365480 1.358380
2 1 9.504530 4.092690 1.418030
3 1 9.520150 1.346850 4.047880
4 1 1.361130 1.360980 1.352970
5 1 4.038500 4.059300 1.335500
6 1 6.776650 6.758860 1.336790
7 1 9.521840 9.527570 1.308520
8 1 4.056800 1.365830 4.085580
9 1 6.786460 4.066940 4.116990
10 1 9.490570 6.815950 4.083940
11 1 6.762940 1.345260 6.773170
12 1 9.552150 4.048270 6.772570
13 1 9.498370 1.394510 9.508900
14 1 1.384820 6.746120 1.394870
15 1 4.125040 9.515530 1.388940
16 1 1.387480 4.092640 4.020820
17 1 4.058280 6.786360 4.067500
18 1 6.731430 9.529020 4.013780
19 1 1.356200 1.306060 6.793660
20 1 4.095470 4.062500 6.816840
21 1 6.804440 6.778910 6.751670
22 1 9.511820 9.468930 6.793860
23 1 4.065840 1.350330 9.551630
24 1 6.786570 4.069130 9.493110
25 1 9.500950 6.810920 9.487390
26 1 1.316470 9.539900 4.070540
27 1 1.354120 6.772820 6.802050
28 1 4.034520 9.523200 6.778440
29 1 1.344690 4.089600 9.468360
30 1 4.064080 6.833480 9.539250
31 1 6.778440 9.513220 9.507570
32 1 1.369270 9.441420 9.531150
33 1 5.445480 0.026744 0.004497
34 1 8.117680 2.770820 0.038632
35 1 8.198850 0.018738 2.702280
36 1 -0.011162 0.012023 -0.010093
37 1 2.672210 2.693730 -0.055185
38 1 5.400290 5.402040 -0.020721
39 1 8.173320 8.135290 -0.014974
40 1 2.749550 -0.012512 2.696450
41 1 5.399300 2.710550 2.718110
42 1 8.129070 5.425660 2.747020
43 1 5.432630 0.008491 5.433960
44 1 8.175490 2.699270 5.465500
45 1 8.126760 -0.034458 8.153280
46 1 -0.029687 5.433520 0.019644
47 1 2.758370 8.124980 0.007750
48 1 -0.060300 2.763170 2.682630
49 1 2.747850 5.442010 2.698120
50 1 5.437780 8.086280 2.710570
51 1 -0.029618 -0.002490 5.452330
52 1 2.729010 2.752530 5.412380
53 1 5.471180 5.452410 5.434020
54 1 8.095730 8.137200 5.425130
55 1 2.688590 0.031143 8.204440
56 1 5.419200 2.756010 8.151370
57 1 8.156430 5.430500 8.172430
58 1 0.017680 8.130580 2.712070
59 1 0.023090 5.404470 5.427740
60 1 2.684750 8.157450 5.440600
61 1 0.015849 2.699600 8.121860
62 1 2.714370 5.411470 8.142840
63 1 5.457550 8.158390 8.106770
64 1 0.030851 8.131840 8.183930
