LAMMPS DATA file

192 atoms
0 bonds
0 angles
0 dihedrals
0 impropers

2 atom types
0 bond types
0 angle types

0.0 12.990503 xlo xhi
0.0 11.250148 ylo yhi
0.0 15.845291 zlo zhi

Masses

1 69.723
2 14.0067

Atoms

1 1 1.640701 0.835290 2.774193 0 0 0
2 1 1.611862 1.020681 8.052418 0 0 0
3 1 1.670968 0.905389 13.294516 0 0 0
4 1 0.019814 3.790625 2.661533 0 0 0
5 1 0.106281 3.839676 7.903314 0 0 0
6 1 12.907929 3.711311 13.047963 0 0 0
7 1 4.743352 1.005808 2.553785 0 0 0
8 1 3.323620 1.942338 5.182836 0 0 0
9 1 4.869230 1.016271 7.957030 0 0 0
10 1 3.173580 1.981376 10.569760 0 0 0
11 1 4.958345 1.008508 13.216240 0 0 0
12 1 3.229049 1.828262 0.090318 0 0 0
13 1 3.374673 3.751924 2.537465 0 0 0
14 1 1.634465 4.631011 5.241939 0 0 0
15 1 3.171372 3.814363 7.908701 0 0 0
16 1 1.616798 4.736650 10.440145 0 0 0
17 1 3.364800 3.802888 13.236522 0 0 0
18 1 1.639791 4.626286 0.117255 0 0 0
19 1 1.627450 6.544324 2.722696 0 0 0
20 1 1.674995 6.672913 7.946572 0 0 0
21 1 1.534568 6.479523 13.094390 0 0 0
22 1 12.877752 9.347073 2.707168 0 0 0
23 1 12.961693 9.270685 7.760548 0 0 0
24 1 0.040575 9.432012 13.061907 0 0 0
25 1 8.077365 0.936924 2.575810 0 0 0
26 1 6.539939 1.944363 5.332416 0 0 0
27 1 8.230913 0.968762 7.940234 0 0 0
28 1 6.622688 1.774823 10.426518 0 0 0
29 1 8.238967 0.916235 13.257596 0 0 0
30 1 6.470829 1.986439 0.101410 0 0 0
31 1 6.429260 3.731224 2.594191 0 0 0
32 1 4.947303 4.582298 5.370286 0 0 0
33 1 6.374180 3.641673 7.900462 0 0 0
34 1 4.959125 4.754200 10.696522 0 0 0
35 1 6.417698 3.831688 13.121485 0 0 0
36 1 4.756992 4.793013 15.702049 0 0 0
37 1 4.801160 6.457473 2.517500 0 0 0
38 1 3.294392 7.393935 5.387874 0 0 0
39 1 4.814800 6.544999 7.965744 0 0 0
40 1 3.357136 7.453336 10.706029 0 0 0
41 1 4.944056 6.469510 13.097242 0 0 0
42 1 3.167215 7.409910 0.125178 0 0 0
43 1 3.130322 9.467337 2.515598 0 0 0
44 1 1.585751 10.252260 5.295496 0 0 0
45 1 3.266722 9.330760 8.003773 0 0 0
46 1 1.497545 10.260248 10.694937 0 0 0
47 1 3.335572 9.267760 13.346488 0 0 0
48 1 1.597312 10.316048 0.068135 0 0 0
49 1 11.380460 1.046241 2.646322 0 0 0
50 1 9.779641 1.838274 5.429072 0 0 0
51 1 11.466977 0.849015 7.955287 0 0 0
52 1 9.839267 1.894975 10.642172 0 0 0
53 1 11.431123 0.853414 13.242226 0 0 0
54 1 9.847711 1.837599 15.836893 0 0 0
55 1 9.671560 3.809413 2.605283 0 0 0
56 1 8.238577 4.712800 5.229897 0 0 0
57 1 9.667143 3.654836 7.944195 0 0 0
58 1 8.057749 4.706387 10.411307 0 0 0
59 1 9.845892 3.676998 13.269005 0 0 0
60 1 8.019947 4.682312 0.071304 0 0 0
61 1 8.127768 6.593037 2.780373 0 0 0
62 1 6.428480 7.529049 5.354282 0 0 0
63 1 8.210648 6.601024 8.065728 0 0 0
64 1 6.366126 7.405635 10.579425 0 0 0
65 1 8.076845 6.586624 13.079970 0 0 0
66 1 6.516426 7.582937 15.722806 0 0 0
67 1 6.459788 9.282610 2.534930 0 0 0
68 1 4.900667 10.408637 5.351747 0 0 0
69 1 6.366776 9.364623 7.933895 0 0 0
70 1 4.835195 10.205797 10.612542 0 0 0
71 1 6.541368 9.347748 13.178211 0 0 0
72 1 4.880012 10.211872 15.754655 0 0 0
73 1 12.971277 1.794624 5.430973 0 0 0
74 1 0.090934 1.971363 10.676081 0 0 0
75 1 12.963093 1.847387 15.689531 0 0 0
76 1 11.438008 4.654299 5.180618 0 0 0
77 1 11.415924 4.622798 10.434916 0 0 0
78 1 11.481656 4.767475 0.109333 0 0 0
79 1 11.269521 6.501686 2.744563 0 0 0
80 1 9.822639 7.449848 5.216428 0 0 0
81 1 11.335643 6.544211 7.779562 0 0 0
82 1 9.859013 7.565387 10.606204 0 0 0
83 1 11.490230 6.479523 13.203881 0 0 0
84 1 9.751191 7.417223 0.039613 0 0 0
85 1 9.718845 9.418287 2.697344 0 0 0
86 1 8.067622 10.387374 5.362046 0 0 0
87 1 9.869405 9.400399 7.874634 0 0 0
88 1 8.028261 10.419662 10.623475 0 0 0
89 1 9.812117 9.302523 13.116732 0 0 0
90 1 8.224158 10.365212 0.112502 0 0 0
91 1 12.930097 7.579225 5.380268 0 0 0
92 1 0.098728 7.399672 10.479124 0 0 0
93 1 0.092233 7.602063 15.723123 0 0 0
94 1 11.314988 10.211872 5.291059 0 0 0
95 1 11.350192 10.244385 10.464388 0 0 0
96 1 11.260168 10.201184 15.740712 0 0 0
97 2 1.663174 0.959053 4.767214 0 0 0
98 2 1.660186 0.926078 9.869715 0 0 0
99 2 1.496246 0.873765 15.172500 0 0 0
100 2 12.948771 3.669123 4.496577 0 0 0
101 2 12.861569 3.817063 9.843411 0 0 0
102 2 0.054913 3.737299 15.125914 0 0 0
103 2 4.809604 0.886939 4.491981 0 0 0
104 2 3.323490 1.830174 1.843600 0 0 0
105 2 4.828830 1.019038 9.798411 0 0 0
106 2 3.198132 1.881925 7.280436 0 0 0
107 2 4.947953 0.838687 15.299103 0 0 0
108 2 3.359604 1.933338 12.428729 0 0 0
109 2 3.150457 3.705011 4.588004 0 0 0
110 2 1.664343 4.765563 2.074465 0 0 0
111 2 3.299328 3.745287 9.874627 0 0 0
112 2 1.636544 4.708975 7.128321 0 0 0
113 2 3.356486 3.746074 15.055403 0 0 0
114 2 1.583023 4.696712 12.582904 0 0 0
115 2 1.695780 6.598887 4.676421 0 0 0
116 2 1.644078 6.514736 9.996635 0 0 0
117 2 1.629399 6.556024 15.071248 0 0 0
118 2 0.088819 9.297573 4.711597 0 0 0
119 2 12.873076 9.434374 9.861475 0 0 0
120 2 12.980082 9.273497 15.125122 0 0 0
121 2 8.182848 1.033371 4.707160 0 0 0
122 2 6.403019 1.840637 2.110910 0 0 0
123 2 8.026053 1.016530 9.901722 0 0 0
124 2 6.605931 1.884287 7.276791 0 0 0
125 2 8.207920 0.865429 15.119576 0 0 0
126 2 6.406007 1.938963 12.585597 0 0 0
127 2 6.529287 3.802100 4.506084 0 0 0
128 2 4.994589 4.603111 2.113445 0 0 0
129 2 6.385872 3.834276 9.941969 0 0 0
130 2 4.961723 4.735975 7.413695 0 0 0
131 2 6.415620 3.654498 15.058730 0 0 0
132 2 4.991211 4.792226 12.686690 0 0 0
133 2 4.920023 6.481210 4.673885 0 0 0
134 2 3.223593 7.545924 1.898900 0 0 0
135 2 5.000175 6.472885 10.009628 0 0 0
136 2 3.295950 7.476511 7.391986 0 0 0
137 2 4.840911 6.550399 15.308611 0 0 0
138 2 3.347653 7.434323 12.643433 0 0 0
139 2 3.297379 9.402199 4.596877 0 0 0
140 2 1.531840 10.210635 1.905555 0 0 0
141 2 3.162668 9.321198 10.053520 0 0 0
142 2 1.652132 10.337086 7.188850 0 0 0
143 2 3.321672 9.265172 15.071248 0 0 0
144 2 1.661096 10.403012 12.513343 0 0 0
145 2 11.436190 1.024844 4.492615 0 0 0
146 2 9.704555 1.979464 2.005380 0 0 0
147 2 11.457494 1.016665 9.979681 0 0 0
148 2 9.858753 1.919275 7.130698 0 0 0
149 2 11.312130 0.869378 15.082023 0 0 0
150 2 9.689876 1.820499 12.459786 0 0 0
151 2 9.749632 3.709736 4.558849 0 0 0
152 2 8.009035 4.774225 1.871329 0 0 0
153 2 9.786136 3.637848 10.032446 0 0 0
154 2 8.118675 4.785926 7.114852 0 0 0
155 2 9.794190 3.812675 15.238891 0 0 0
156 2 8.132445 4.691424 12.519523 0 0 0
157 2 8.129587 6.511698 4.517809 0 0 0
158 2 6.594629 7.429935 1.965767 0 0 0
159 2 8.083471 6.648275 10.004241 0 0 0
160 2 6.366905 7.520274 7.238287 0 0 0
161 2 7.997214 6.547361 15.162992 0 0 0
162 2 6.595408 7.438598 12.700159 0 0 0
163 2 6.497850 9.447424 4.533179 0 0 0
164 2 4.791417 10.400312 2.059888 0 0 0
165 2 6.560854 9.353486 9.979047 0 0 0
166 2 4.849874 10.422137 7.280277 0 0 0
167 2 6.475376 9.278560 15.300054 0 0 0
168 2 4.912359 10.282748 12.613010 0 0 0
169 2 12.931656 1.795186 1.924252 0 0 0
170 2 12.889697 1.983739 7.366476 0 0 0
171 2 12.982189 1.848174 12.610633 0 0 0
172 2 11.264065 4.581398 1.890819 0 0 0
173 2 11.305245 4.797176 7.174906 0 0 0
174 2 11.250685 4.594448 12.504628 0 0 0
175 2 11.453597 6.456573 4.510679 0 0 0
176 2 9.661427 7.601500 2.143551 0 0 0
177 2 11.483735 6.665938 9.822179 0 0 0
178 2 9.680653 7.473923 7.386916 0 0 0
179 2 11.485943 6.592024 15.120369 0 0 0
180 2 9.637135 7.433085 12.626795 0 0 0
181 2 9.790033 9.381724 4.733939 0 0 0
182 2 8.110361 10.272623 2.013778 0 0 0
183 2 9.779121 9.266522 9.761967 0 0 0
184 2 8.003449 10.214572 7.132124 0 0 0
185 2 9.863689 9.281372 15.176302 0 0 0
186 2 8.237538 10.314586 12.457884 0 0 0
187 2 0.129905 7.605888 2.041032 0 0 0
188 2 12.880474 7.435223 7.123884 0 0 0
189 2 0.001299 7.601388 12.574189 0 0 0
190 2 11.350972 10.335624 1.895731 0 0 0
191 2 11.411508 10.272960 7.310383 0 0 0
192 2 11.329148 10.234485 12.417954 0 0 0
