LAMMPS DATA file

192 atoms
0 bonds
0 angles
0 dihedrals
0 impropers

2 atom types
0 bond types
0 angle types

0.0 12.990503 xlo xhi
0.0 11.250148 ylo yhi
0.0 15.845291 zlo zhi

Masses

1 69.723
2 14.0067

Atoms

1 1 1.662914 0.941176 2.580406 0 0 0
2 1 1.665902 0.851456 7.805549 0 0 0
3 1 1.499104 1.041977 13.347914 0 0 0
4 1 12.892780 3.742699 2.684984 0 0 0
5 1 12.935992 3.807275 7.935638 0 0 0
6 1 12.971745 3.697699 13.279304 0 0 0
7 1 4.974973 0.988911 2.605916 0 0 0
8 1 3.361553 1.820049 5.286781 0 0 0
9 1 4.989652 0.885252 7.838031 0 0 0
10 1 3.358695 1.777973 10.494494 0 0 0
11 1 4.895211 0.870750 13.241909 0 0 0
12 1 3.325179 1.875400 0.042782 0 0 0
13 1 3.324530 3.690049 2.667396 0 0 0
14 1 1.523137 4.691087 5.383279 0 0 0
15 1 3.357006 3.749674 7.846746 0 0 0
16 1 1.663434 4.781425 10.561203 0 0 0
17 1 3.370776 3.681949 13.075692 0 0 0
18 1 1.571201 4.664311 15.814709 0 0 0
19 1 1.574839 6.606200 2.506091 0 0 0
20 1 1.598352 6.516536 7.855778 0 0 0
21 1 1.521318 6.583699 13.130042 0 0 0
22 1 12.900929 9.262810 2.566779 0 0 0
23 1 0.013202 9.458562 7.772115 0 0 0
24 1 0.105153 9.292060 13.304657 0 0 0
25 1 8.197137 1.031537 2.520510 0 0 0
26 1 6.496421 1.853687 5.172854 0 0 0
27 1 8.138550 0.961404 7.826623 0 0 0
28 1 6.500448 1.985089 10.554865 0 0 0
29 1 8.169727 0.917585 13.051449 0 0 0
30 1 6.441471 1.942901 15.791100 0 0 0
31 1 6.387041 3.752599 2.593240 0 0 0
32 1 4.933663 4.693112 5.372821 0 0 0
33 1 6.577611 3.680148 7.797943 0 0 0
34 1 4.954838 4.718537 10.404652 0 0 0
35 1 6.598136 3.753499 13.213071 0 0 0
36 1 4.899108 4.746213 0.107748 0 0 0
37 1 4.841041 6.469173 2.709545 0 0 0
38 1 3.203978 7.576525 5.235601 0 0 0
39 1 4.956656 6.489761 7.799686 0 0 0
40 1 3.346354 7.397535 10.617295 0 0 0
41 1 4.932234 6.548486 13.160781 0 0 0
42 1 3.372205 7.477411 15.820889 0 0 0
43 1 3.158511 9.335936 2.576444 0 0 0
44 1 1.726308 10.255748 5.216270 0 0 0
45 1 3.223983 9.421887 7.804281 0 0 0
46 1 1.720332 10.218847 10.545992 0 0 0
47 1 3.125645 9.432124 13.262350 0 0 0
48 1 1.549637 10.353061 0.012676 0 0 0
49 1 11.457754 0.950683 2.762785 0 0 0
50 1 9.721963 1.843112 5.272837 0 0 0
51 1 11.303297 1.034080 7.906642 0 0 0
52 1 9.678964 1.859537 10.622207 0 0 0
53 1 11.341359 0.865924 13.311787 0 0 0
54 1 9.764701 1.846599 15.751645 0 0 0
55 1 9.669871 3.755074 2.614314 0 0 0
56 1 8.181809 4.590960 5.386290 0 0 0
57 1 9.789643 3.668336 8.030710 0 0 0
58 1 8.041121 4.711675 10.571661 0 0 0
59 1 9.655192 3.638860 13.285009 0 0 0
60 1 8.187914 4.669824 15.699355 0 0 0
61 1 8.141408 6.489311 2.707802 0 0 0
62 1 6.504215 7.444561 5.408473 0 0 0
63 1 8.186096 6.649625 7.780513 0 0 0
64 1 6.413022 7.553462 10.620306 0 0 0
65 1 8.191032 6.562999 13.175359 0 0 0
66 1 6.524091 7.580125 0.049120 0 0 0
67 1 6.501357 9.329860 2.700038 0 0 0
68 1 4.840651 10.327861 5.399124 0 0 0
69 1 6.584366 9.464862 8.056221 0 0 0
70 1 4.953409 10.200397 10.400532 0 0 0
71 1 6.388080 9.321310 13.047646 0 0 0
72 1 4.851693 10.276898 0.007923 0 0 0
73 1 0.110419 1.829724 5.224985 0 0 0
74 1 0.093532 1.839174 10.443314 0 0 0
75 1 0.002598 1.955276 15.803142 0 0 0
76 1 11.417483 4.716287 5.260636 0 0 0
77 1 11.359805 4.788738 10.426043 0 0 0
78 1 11.309532 4.675674 0.022183 0 0 0
79 1 11.464769 6.555686 2.615582 0 0 0
80 1 9.806791 7.492936 5.390568 0 0 0
81 1 11.357987 6.562211 7.913138 0 0 0
82 1 9.672599 7.406873 10.420972 0 0 0
83 1 11.467627 6.502586 13.313530 0 0 0
84 1 9.797827 7.583950 0.133100 0 0 0
85 1 9.649216 9.351236 2.787662 0 0 0
86 1 8.156737 10.401887 5.270619 0 0 0
87 1 9.616610 9.402761 7.832010 0 0 0
88 1 8.126209 10.363299 10.592101 0 0 0
89 1 9.765871 9.360123 13.117841 0 0 0
90 1 8.100618 10.202422 0.028522 0 0 0
91 1 0.119513 7.409123 5.129121 0 0 0
92 1 0.100027 7.443211 10.402433 0 0 0
93 1 0.081840 7.419248 0.115671 0 0 0
94 1 11.261597 10.279485 5.305954 0 0 0
95 1 11.388774 10.350361 10.604936 0 0 0
96 1 11.349413 10.231560 0.074473 0 0 0
97 2 1.556782 0.971360 4.740277 0 0 0
98 2 1.515862 1.043733 9.760382 0 0 0
99 2 1.710979 1.013042 15.047956 0 0 0
100 2 0.011923 3.849801 4.570416 0 0 0
101 2 0.079625 3.772850 10.000597 0 0 0
102 2 0.077733 3.648648 15.121795 0 0 0
103 2 4.911320 0.935180 4.776880 0 0 0
104 2 3.312189 1.890250 1.922509 0 0 0
105 2 4.808045 1.024483 9.891898 0 0 0
106 2 3.329726 1.784611 7.381846 0 0 0
107 2 4.748678 1.027319 15.317325 0 0 0
108 2 3.253861 1.789561 12.447585 0 0 0
109 2 3.301147 3.824600 4.479622 0 0 0
110 2 1.690844 4.790426 1.936295 0 0 0
111 2 3.283480 3.714686 9.819010 0 0 0
112 2 1.698119 4.737775 7.197882 0 0 0
113 2 3.269060 3.732237 15.061266 0 0 0
114 2 1.500143 4.685574 12.479434 0 0 0
115 2 1.582243 6.514736 4.522721 0 0 0
116 2 1.597702 6.607100 9.814890 0 0 0
117 2 1.667071 6.549724 15.169489 0 0 0
118 2 12.906129 9.306123 4.663903 0 0 0
119 2 12.930491 9.388586 10.049717 0 0 0
120 2 0.055724 9.415474 15.336181 0 0 0
121 2 8.190642 0.961753 4.768957 0 0 0
122 2 6.380805 1.822974 2.140382 0 0 0
123 2 8.189733 0.931962 9.966054 0 0 0
124 2 6.473687 1.848062 7.176966 0 0 0
125 2 8.088667 0.831690 15.181848 0 0 0
126 2 6.451993 1.982051 12.567217 0 0 0
127 2 6.585276 3.729312 4.614941 0 0 0
128 2 4.956267 4.798076 1.993654 0 0 0
129 2 6.605801 3.803788 9.930085 0 0 0
130 2 4.993290 4.760613 7.413536 0 0 0
131 2 6.533314 3.722899 15.183116 0 0 0
132 2 4.978480 4.578360 12.440930 0 0 0
133 2 4.864034 6.572224 4.487545 0 0 0
134 2 3.288676 7.587775 1.862455 0 0 0
135 2 4.855330 6.513161 10.062552 0 0 0
136 2 3.275945 7.444673 7.151455 0 0 0
137 2 4.883130 6.636350 15.297360 0 0 0
138 2 3.334272 7.433423 12.563731 0 0 0
139 2 3.345055 9.289810 4.739960 0 0 0
140 2 1.727737 10.249110 1.852156 0 0 0
141 2 3.240871 9.450462 9.899028 0 0 0
142 2 1.601469 10.313236 7.149237 0 0 0
143 2 3.152146 9.458450 15.223204 0 0 0
144 2 1.562887 10.394687 12.409556 0 0 0
145 2 11.355778 0.987504 4.575961 0 0 0
146 2 9.717156 1.881137 2.111068 0 0 0
147 2 11.439047 0.840622 9.838658 0 0 0
148 2 9.711570 1.957076 7.242565 0 0 0
149 2 11.299140 0.959480 15.184067 0 0 0
150 2 9.846412 1.972826 12.650405 0 0 0
151 2 9.797178 3.804800 4.753746 0 0 0
152 2 8.006047 4.650699 1.829022 0 0 0
153 2 9.828095 3.751699 9.866387 0 0 0
154 2 8.048006 4.695362 7.201209 0 0 0
155 2 9.630769 3.656636 15.053818 0 0 0
156 2 8.095682 4.602773 12.531565 0 0 0
157 2 8.222729 6.529699 4.506718 0 0 0
158 2 6.513179 7.584512 1.938196 0 0 0
159 2 8.000072 6.482110 9.774643 0 0 0
160 2 6.557736 7.490349 7.321158 0 0 0
161 2 8.170897 6.578637 15.231286 0 0 0
162 2 6.593460 7.536587 12.668627 0 0 0
163 2 6.486808 9.294422 4.490238 0 0 0
164 2 4.927038 10.269473 2.040398 0 0 0
165 2 6.534873 9.382061 9.976987 0 0 0
166 2 4.872738 10.309973 7.267284 0 0 0
167 2 6.608529 9.350223 15.069188 0 0 0
168 2 4.804018 10.354186 12.657218 0 0 0
169 2 0.122111 1.810936 2.068603 0 0 0
170 2 0.022084 1.853237 7.271087 0 0 0
171 2 12.989334 1.909038 12.626954 0 0 0
172 2 11.315248 4.595236 2.089518 0 0 0
173 2 11.337981 4.749475 7.166350 0 0 0
174 2 11.265234 4.778725 12.668944 0 0 0
175 2 11.496595 6.644563 4.480256 0 0 0
176 2 9.754439 7.612075 1.989693 0 0 0
177 2 11.463729 6.465910 10.063344 0 0 0
178 2 9.852647 7.514537 7.246210 0 0 0
179 2 11.324601 6.612275 15.036388 0 0 0
180 2 9.710141 7.595200 12.564365 0 0 0
181 2 9.736122 9.374299 4.566454 0 0 0
182 2 8.236239 10.421125 1.990485 0 0 0
183 2 9.870834 9.365186 9.885401 0 0 0
184 2 8.044499 10.243597 7.373289 0 0 0
185 2 9.801724 9.381836 15.294825 0 0 0
186 2 8.122182 10.324374 12.458835 0 0 0
187 2 0.023383 7.419698 1.844233 0 0 0
188 2 0.048065 7.524549 7.179026 0 0 0
189 2 12.966211 7.529274 12.567217 0 0 0
190 2 11.269911 10.238197 1.828071 0 0 0
191 2 11.345386 10.310086 7.160170 0 0 0
192 2 11.410079 10.204222 12.429204 0 0 0
