LAMMPS DATA file

64 atoms

1 atom types

0.000000 10.862000 xlo xhi
0.000000 10.862000 ylo yhi
0.000000 10.862000 zlo zhi

Masses

1 28.0855

Atoms

1 1 6.816120 1.341830 1.381070
2 1 9.505900 4.065560 1.403350
3 1 9.536110 1.351270 4.062530
4 1 1.349330 1.349760 1.332310
5 1 4.075530 4.053300 1.339150
6 1 6.718120 6.744270 1.374380
7 1 9.491290 9.482060 1.323170
8 1 4.101730 1.368520 4.047870
9 1 6.803460 4.033820 4.097080
10 1 9.496910 6.783200 4.111530
11 1 6.815670 1.342100 6.794740
12 1 9.531290 4.107620 6.773890
13 1 9.532890 1.350640 9.482870
14 1 1.316600 6.775800 1.366570
15 1 4.068960 9.484190 1.366710
16 1 1.359660 4.065420 4.090280
17 1 4.071120 6.788570 4.081260
18 1 6.782490 9.493290 4.029180
19 1 1.402470 1.366450 6.787870
20 1 4.076170 4.095280 6.810000
21 1 6.800990 6.802650 6.807820
22 1 9.488770 9.530920 6.788000
23 1 4.087790 1.350360 9.484030
24 1 6.768740 4.082590 9.519220
25 1 9.488990 6.783190 9.503300
26 1 1.353550 9.511180 4.050540
27 1 1.371490 6.812310 6.787300
28 1 4.064820 9.516240 6.767180
29 1 1.334500 4.108510 9.522000
30 1 4.063060 6.796600 9.508860
31 1 6.779370 9.519590 9.472400
32 1 1.352340 9.527540 9.508620
33 1 5.433720 -0.007613 -0.010665
34 1 8.126010 2.711960 0.024270
35 1 8.171690 -0.008134 2.715520
36 1 -0.023487 0.010888 -0.019938
37 1 2.672840 2.718590 -0.014480
38 1 5.361980 5.414630 -0.012498
39 1 8.101470 8.150280 0.004337
40 1 2.731140 -0.020479 2.691430
41 1 5.471810 2.691760 2.713760
42 1 8.117610 5.412980 2.771010
43 1 5.446970 -0.003278 5.414280
44 1 8.199680 2.722810 5.439950
45 1 8.172720 -0.017210 8.157920
46 1 -0.030630 5.437060 0.006382
47 1 2.691350 8.141690 0.012066
48 1 0.023094 2.707680 2.710450
49 1 2.711630 5.425160 2.708430
50 1 5.422680 8.115960 2.700590
51 1 0.023610 0.005930 5.432520
52 1 2.763510 2.756260 5.421570
53 1 5.441080 5.441890 5.436080
54 1 8.135650 8.153780 5.440630
55 1 2.743340 0.030795 8.130810
56 1 5.451300 2.722750 8.130970
57 1 8.173490 5.434850 8.165720
58 1 -0.006684 8.123020 2.726330
59 1 -0.008331 5.440100 5.433980
60 1 2.695930 8.202180 5.442390
61 1 0.030404 2.688610 8.150020
62 1 2.730370 5.442410 8.154260
63 1 5.388790 8.157660 8.125770
64 1 -0.034997 8.146450 8.157060
