LAMMPS DATA file

64 atoms

1 atom types

0.000000 10.862000 xlo xhi
0.000000 10.862000 ylo yhi
0.000000 10.862000 zlo zhi

Masses

1 28.0855

Atoms

1 1 6.732220 1.328550 1.366840
2 1 9.456540 4.066310 1.318440
3 1 9.507840 1.376390 4.084700
4 1 1.380750 1.337770 1.368990
5 1 4.055570 4.044280 1.376870
6 1 6.807400 6.777710 1.346080
7 1 9.543970 9.482260 1.380370
8 1 4.110380 1.350700 4.083700
9 1 6.804100 4.050040 4.033640
10 1 9.516820 6.762900 4.088860
11 1 6.828010 1.401710 6.830480
12 1 9.500220 4.112290 6.871970
13 1 9.482340 1.340560 9.497410
14 1 1.277040 6.789810 1.350670
15 1 4.053380 9.462250 1.312160
16 1 1.360600 4.087570 4.075380
17 1 4.050690 6.798000 4.114440
18 1 6.793060 9.471660 4.075230
19 1 1.408470 1.429640 6.739300
20 1 4.103350 4.111870 6.750100
21 1 6.807680 6.752850 6.820970
22 1 9.481440 9.503370 6.781710
23 1 4.095620 1.393240 9.445560
24 1 6.754760 4.070590 9.568990
25 1 9.491820 6.809040 9.536630
26 1 1.378330 9.493760 4.070130
27 1 1.354990 6.782390 6.790480
28 1 4.072640 9.524370 6.794740
29 1 1.347820 4.077880 9.531360
30 1 4.073060 6.779620 9.475870
31 1 6.796710 9.496600 9.487450
32 1 1.338660 9.563880 9.491660
33 1 5.429760 -0.013442 -0.022028
34 1 8.148800 2.662330 -0.005605
35 1 8.136350 -0.045574 2.692930
36 1 0.023047 0.017436 -0.006545
37 1 2.731560 2.710120 0.016100
38 1 5.408310 5.431810 0.032107
39 1 8.133690 8.184560 0.007266
40 1 2.737370 -0.007163 2.743500
41 1 5.450760 2.689300 2.712670
42 1 8.159150 5.444270 2.709970
43 1 5.436290 0.012181 5.442430
44 1 8.169820 2.741520 5.430430
45 1 8.160050 0.019387 8.131100
46 1 -0.041731 5.433550 -0.014291
47 1 2.628230 8.143870 0.031959
48 1 0.071781 2.694870 2.714030
49 1 2.690100 5.437040 2.716580
50 1 5.398670 8.127690 2.691540
51 1 0.024530 0.000049 5.418910
52 1 2.756370 2.734570 5.414600
53 1 5.425240 5.404080 5.405840
54 1 8.149420 8.148420 5.402510
55 1 2.731780 -0.004258 8.113400
56 1 5.452260 2.708300 8.146550
57 1 8.137490 5.419240 8.196920
58 1 -0.021769 8.158560 2.737350
59 1 0.002225 5.438180 5.428610
60 1 2.682070 8.165150 5.432260
61 1 0.028132 2.704680 8.161510
62 1 2.741810 5.448990 8.147250
63 1 5.411910 8.149510 8.128860
64 1 -0.023773 8.146930 8.116140
