LAMMPS DATA file

64 atoms

1 atom types

0.000000 10.862000 xlo xhi
0.000000 10.862000 ylo yhi
0.000000 10.862000 zlo zhi

Masses

1 28.0855

Atoms

1 1 6.845970 1.340220 1.367650
2 1 9.496490 4.082780 1.428590
3 1 9.557370 1.339430 4.056010
4 1 1.333910 1.342180 1.330230
5 1 4.065050 4.024320 1.339570
6 1 6.698420 6.739180 1.375770
7 1 9.453450 9.518350 1.309030
8 1 4.093000 1.353750 4.025540
9 1 6.793850 4.022230 4.162920
10 1 9.483330 6.797820 4.086040
11 1 6.839390 1.304190 6.745060
12 1 9.563980 4.040810 6.733670
13 1 9.527690 1.372750 9.495710
14 1 1.405530 6.796840 1.381800
15 1 4.073870 9.483140 1.371070
16 1 1.362130 4.061310 4.111660
17 1 4.063220 6.813310 4.049540
18 1 6.792990 9.503810 4.036200
19 1 1.385110 1.355750 6.799480
20 1 4.074900 4.079120 6.832390
21 1 6.769110 6.852300 6.799200
22 1 9.490120 9.527140 6.773040
23 1 4.072170 1.350190 9.540320
24 1 6.803000 4.101960 9.477240
25 1 9.491580 6.773340 9.516780
26 1 1.348580 9.505690 4.058240
27 1 1.350070 6.845420 6.797610
28 1 4.045640 9.534270 6.745780
29 1 1.349260 4.101010 9.475270
30 1 4.053660 6.800620 9.536970
31 1 6.771950 9.508800 9.468130
32 1 1.367660 9.485820 9.509230
33 1 5.442700 0.000977 0.010329
34 1 8.138770 2.755780 0.030259
35 1 8.201280 0.009569 2.717930
36 1 -0.043112 -0.018986 -0.009985
37 1 2.662830 2.743450 -0.047591
38 1 5.368480 5.422680 -0.056456
39 1 8.045110 8.085100 -0.003565
40 1 2.709230 0.014059 2.679790
41 1 5.496480 2.710490 2.701440
42 1 8.108520 5.389630 2.798970
43 1 5.422080 -0.014405 5.379640
44 1 8.168260 2.720000 5.460750
45 1 8.167450 0.004086 8.180180
46 1 -0.031892 5.429950 0.039100
47 1 2.724770 8.148730 -0.008556
48 1 0.004345 2.684760 2.713660
49 1 2.722380 5.402600 2.707480
50 1 5.430490 8.134050 2.720660
51 1 0.028647 0.010117 5.432130
52 1 2.737280 2.727950 5.460780
53 1 5.468470 5.440360 5.466610
54 1 8.137830 8.177610 5.470190
55 1 2.738000 0.002571 8.138980
56 1 5.445690 2.694870 8.125400
57 1 8.170210 5.444190 8.107320
58 1 -0.025111 8.100040 2.705330
59 1 0.018221 5.468870 5.430870
60 1 2.736070 8.207210 5.423670
61 1 0.010596 2.736450 8.124750
62 1 2.704030 5.449710 8.163280
63 1 5.418000 8.145080 8.152390
64 1 -0.012538 8.150610 8.184530
