LAMMPS DATA file

192 atoms
0 bonds
0 angles
0 dihedrals
0 impropers

2 atom types
0 bond types
0 angle types

0.0 12.990503 xlo xhi
0.0 11.250148 ylo yhi
0.0 15.845291 zlo zhi

Masses

1 69.723
2 14.0067

Atoms

1 1 1.747612 1.027240 2.780848 0 0 0
2 1 1.713317 0.910722 7.787168 0 0 0
3 1 1.684219 0.978594 13.178370 0 0 0
4 1 12.897806 3.706699 2.692590 0 0 0
5 1 0.001027 3.802888 7.964001 0 0 0
6 1 12.878222 3.861388 13.097876 0 0 0
7 1 4.861176 0.951178 2.684826 0 0 0
8 1 3.328687 1.937163 5.211833 0 0 0
9 1 4.788299 1.014437 7.966061 0 0 0
10 1 3.275685 1.870000 10.593369 0 0 0
11 1 4.839872 1.019938 13.192630 0 0 0
12 1 3.237493 1.830399 0.011092 0 0 0
13 1 3.267371 3.670023 2.705583 0 0 0
14 1 1.545870 4.637986 5.339229 0 0 0
15 1 3.167215 3.732462 7.824563 0 0 0
16 1 1.529892 4.758138 10.503685 0 0 0
17 1 3.242560 3.652586 13.066502 0 0 0
18 1 1.576398 4.645861 15.788564 0 0 0
19 1 1.663824 6.544661 2.740601 0 0 0
20 1 1.720982 6.573799 7.865761 0 0 0
21 1 1.634725 6.506523 13.157137 0 0 0
22 1 0.090862 9.457325 2.500387 0 0 0
23 1 0.115613 9.266072 7.783841 0 0 0
24 1 0.065953 9.346511 13.106907 0 0 0
25 1 8.206491 1.018082 2.721904 0 0 0
26 1 6.455760 1.980251 5.220865 0 0 0
27 1 8.135692 0.874823 7.944829 0 0 0
28 1 6.447576 1.921188 10.422398 0 0 0
29 1 8.012802 0.866576 13.101520 0 0 0
30 1 6.406007 1.823762 15.739286 0 0 0
31 1 6.374570 3.653486 2.484066 0 0 0
32 1 4.900927 4.636074 5.266658 0 0 0
33 1 6.410943 3.819988 7.764826 0 0 0
34 1 4.874816 4.781538 10.636785 0 0 0
35 1 6.567869 3.719749 13.345696 0 0 0
36 1 4.833766 4.771638 0.069719 0 0 0
37 1 4.851303 6.565812 2.583416 0 0 0
38 1 3.147469 7.564600 5.268401 0 0 0
39 1 4.778816 6.559511 8.046080 0 0 0
40 1 3.231907 7.535574 10.545516 0 0 0
41 1 4.771672 6.528686 13.134795 0 0 0
42 1 3.119020 7.425098 0.112502 0 0 0
43 1 3.308681 9.278335 2.524313 0 0 0
44 1 1.737999 10.398400 5.220706 0 0 0
45 1 3.238013 9.424137 7.894441 0 0 0
46 1 1.633166 10.413925 10.557400 0 0 0
47 1 3.330116 9.428187 13.090587 0 0 0
48 1 1.699548 10.203209 0.064966 0 0 0
49 1 11.364742 0.900923 2.716200 0 0 0
50 1 9.796528 1.862125 5.378209 0 0 0
51 1 11.448790 1.008655 7.917575 0 0 0
52 1 9.655451 1.893962 10.687648 0 0 0
53 1 11.312000 0.904703 13.144936 0 0 0
54 1 9.801854 1.919613 15.769709 0 0 0
55 1 9.838228 3.656748 2.498644 0 0 0
56 1 8.240656 4.715725 5.361888 0 0 0
57 1 9.650775 3.708161 7.758963 0 0 0
58 1 8.134523 4.782551 10.540763 0 0 0
59 1 9.703776 3.752937 13.068720 0 0 0
60 1 8.187654 4.662399 15.728194 0 0 0
61 1 8.089186 6.511361 2.571849 0 0 0
62 1 6.368334 7.441298 5.264281 0 0 0
63 1 8.025793 6.534649 7.902205 0 0 0
64 1 6.502266 7.511611 10.504952 0 0 0
65 1 8.045019 6.483685 13.218141 0 0 0
66 1 6.450694 7.534674 0.087149 0 0 0
67 1 6.576053 9.416262 2.566462 0 0 0
68 1 4.876765 10.324261 5.270461 0 0 0
69 1 6.402370 9.339536 8.032770 0 0 0
70 1 4.805577 10.242135 10.566432 0 0 0
71 1 6.464724 9.452600 13.265202 0 0 0
72 1 4.919504 10.269810 15.685887 0 0 0
73 1 12.944647 1.931200 5.188540 0 0 0
74 1 0.118214 1.766048 10.657067 0 0 0
75 1 12.911781 1.819711 15.823899 0 0 0
76 1 11.388125 4.708637 5.424318 0 0 0
77 1 11.360455 4.714937 10.595112 0 0 0
78 1 11.397218 4.659249 0.055459 0 0 0
79 1 11.315897 6.535324 2.716675 0 0 0
80 1 9.744696 7.526012 5.245267 0 0 0
81 1 11.288228 6.563561 7.907751 0 0 0
82 1 9.649086 7.492824 10.551696 0 0 0
83 1 11.247697 6.470635 13.141450 0 0 0
84 1 9.871613 7.526687 0.076057 0 0 0
85 1 9.684680 9.382736 2.484066 0 0 0
86 1 8.203113 10.254398 5.324493 0 0 0
87 1 9.776393 9.298585 7.998703 0 0 0
88 1 8.075416 10.253273 10.624901 0 0 0
89 1 9.698060 9.378574 13.177419 0 0 0
90 1 8.196748 10.322236 0.126762 0 0 0
91 1 12.896842 7.590475 5.205336 0 0 0
92 1 0.115615 7.402260 10.574196 0 0 0
93 1 12.863716 7.419135 0.107748 0 0 0
94 1 11.402674 10.386812 5.339388 0 0 0
95 1 11.273159 10.350699 10.547418 0 0 0
96 1 11.477369 10.399300 0.060212 0 0 0
97 2 1.661096 0.882732 4.691474 0 0 0
98 2 1.684998 0.996864 9.875419 0 0 0
99 2 1.510146 0.982565 15.157446 0 0 0
100 2 0.087190 3.692524 4.773235 0 0 0
101 2 0.105673 3.709286 9.993466 0 0 0
102 2 0.066359 3.771725 15.077269 0 0 0
103 2 4.753745 1.019185 4.656297 0 0 0
104 2 3.138376 1.818136 2.096173 0 0 0
105 2 4.760370 1.008295 10.030544 0 0 0
106 2 3.213850 1.942563 7.366317 0 0 0
107 2 4.787910 0.981227 15.241585 0 0 0
108 2 3.374933 1.848849 12.622675 0 0 0
109 2 3.137466 3.654386 4.638075 0 0 0
110 2 1.593935 4.659474 2.135945 0 0 0
111 2 3.302965 3.715361 9.827566 0 0 0
112 2 1.690194 4.774113 7.219273 0 0 0
113 2 3.136817 3.761937 15.164102 0 0 0
114 2 1.552235 4.682649 12.549470 0 0 0
115 2 1.650573 6.514398 4.639501 0 0 0
116 2 1.628879 6.557711 9.934522 0 0 0
117 2 1.595494 6.657163 15.246497 0 0 0
118 2 12.936325 9.479487 4.473759 0 0 0
119 2 12.918296 9.449112 9.997111 0 0 0
120 2 12.939249 9.457212 15.326040 0 0 0
121 2 8.184407 0.924526 4.640452 0 0 0
122 2 6.592680 1.982501 2.016472 0 0 0
123 2 8.141538 1.023685 10.001072 0 0 0
124 2 6.498499 1.886312 7.312126 0 0 0
125 2 8.075157 0.898988 15.079171 0 0 0
126 2 6.554228 1.845587 12.583379 0 0 0
127 2 6.367165 3.668786 4.774186 0 0 0
128 2 4.928727 4.780975 2.058303 0 0 0
129 2 6.494602 3.780950 9.903940 0 0 0
130 2 4.848446 4.636636 7.389768 0 0 0
131 2 6.600475 3.740562 15.165052 0 0 0
132 2 4.884819 4.752850 12.409873 0 0 0
133 2 4.862605 6.624312 4.691791 0 0 0
134 2 3.293482 7.562125 1.971788 0 0 0
135 2 4.800251 6.660763 9.947673 0 0 0
136 2 3.308291 7.575737 7.297865 0 0 0
137 2 4.844159 6.589212 15.246655 0 0 0
138 2 3.122267 7.553912 12.408605 0 0 0
139 2 3.180985 9.426612 4.606860 0 0 0
140 2 1.494298 10.249560 1.950714 0 0 0
141 2 3.305953 9.435274 9.826615 0 0 0
142 2 1.503131 10.414375 7.277584 0 0 0
143 2 3.159420 9.344261 15.120052 0 0 0
144 2 1.644728 10.344286 12.428887 0 0 0
145 2 11.244969 0.933200 4.517334 0 0 0
146 2 9.853686 1.855262 1.955626 0 0 0
147 2 11.276536 1.021907 10.028326 0 0 0
148 2 9.637135 1.837374 7.329239 0 0 0
149 2 11.281213 0.902847 15.147781 0 0 0
150 2 9.701698 1.968438 12.445525 0 0 0
151 2 9.663246 3.854976 4.614624 0 0 0
152 2 8.180120 4.594561 1.895889 0 0 0
153 2 9.761194 3.710299 10.053678 0 0 0
154 2 8.142577 4.602098 7.197089 0 0 0
155 2 9.650775 3.799400 15.271374 0 0 0
156 2 8.209478 4.611211 12.526494 0 0 0
157 2 8.197397 6.496511 4.676738 0 0 0
158 2 6.440692 7.541874 1.925520 0 0 0
159 2 8.234030 6.503823 9.971758 0 0 0
160 2 6.401720 7.487761 7.314186 0 0 0
161 2 8.011243 6.565249 15.111020 0 0 0
162 2 6.462905 7.520274 12.706655 0 0 0
163 2 6.375349 9.322435 4.564394 0 0 0
164 2 4.795055 10.342711 2.054500 0 0 0
165 2 6.504475 9.279460 9.798886 0 0 0
166 2 4.919114 10.275210 7.376300 0 0 0
167 2 6.611647 9.431787 15.040667 0 0 0
168 2 4.934832 10.275885 12.645176 0 0 0
169 2 12.903986 1.905775 1.873072 0 0 0
170 2 0.083139 1.802724 7.166350 0 0 0
171 2 12.899959 1.860325 12.670053 0 0 0
172 2 11.366560 4.702899 1.855484 0 0 0
173 2 11.352141 4.733612 7.420666 0 0 0
174 2 11.329797 4.600973 12.473730 0 0 0
175 2 11.495426 6.638487 4.706210 0 0 0
176 2 9.811597 7.607125 2.107741 0 0 0
177 2 11.403324 6.653563 10.007252 0 0 0
178 2 9.770417 7.580462 7.159219 0 0 0
179 2 11.320834 6.564011 15.156654 0 0 0
180 2 9.685849 7.587550 12.488149 0 0 0
181 2 9.827835 9.303873 4.738217 0 0 0
182 2 8.066063 10.207147 1.945326 0 0 0
183 2 9.712999 9.455300 10.042745 0 0 0
184 2 8.055801 10.330224 7.213093 0 0 0
185 2 9.736252 9.429874 15.244754 0 0 0
186 2 8.005787 10.403012 12.619665 0 0 0
187 2 12.975824 7.426335 1.959429 0 0 0
188 2 12.860728 7.510599 7.288358 0 0 0
189 2 12.877486 7.474598 12.551213 0 0 0
190 2 11.462430 10.368587 2.064008 0 0 0
191 2 11.457104 10.253498 7.216421 0 0 0
192 2 11.487242 10.232460 12.423975 0 0 0
