LAMMPS DATA file

192 atoms
0 bonds
0 angles
0 dihedrals
0 impropers

2 atom types
0 bond types
0 angle types

0.0 12.990503 xlo xhi
0.0 11.250148 ylo yhi
0.0 15.845291 zlo zhi

Masses

1 69.723
2 14.0067

Atoms

1 1 1.646027 0.997438 2.532236 0 0 0
2 1 1.624592 0.911116 8.068422 0 0 0
3 1 1.737090 1.025879 13.181063 0 0 0
4 1 0.065351 3.842151 2.595300 0 0 0
5 1 12.890813 3.755749 7.866870 0 0 0
6 1 0.090780 3.679473 13.106591 0 0 0
7 1 4.879363 0.843975 2.553310 0 0 0
8 1 3.282570 1.787536 5.310232 0 0 0
9 1 4.972765 0.935416 7.857996 0 0 0
10 1 3.315696 1.977326 10.604302 0 0 0
11 1 4.867671 0.923603 13.099460 0 0 0
12 1 3.232817 1.872362 0.109333 0 0 0
13 1 3.303875 3.777125 2.505457 0 0 0
14 1 1.523007 4.704587 5.264122 0 0 0
15 1 3.259447 3.646061 7.942293 0 0 0
16 1 1.657328 4.683549 10.450444 0 0 0
17 1 3.313747 3.816050 13.132735 0 0 0
18 1 1.625761 4.628648 15.742455 0 0 0
19 1 1.703964 6.465123 2.539049 0 0 0
20 1 1.747223 6.579424 7.943561 0 0 0
21 1 1.740727 6.472548 13.318917 0 0 0
22 1 0.101704 9.310735 2.529859 0 0 0
23 1 0.037966 9.303198 7.795566 0 0 0
24 1 12.955517 9.353148 13.068879 0 0 0
25 1 8.166870 0.948061 2.789405 0 0 0
26 1 6.420556 1.969338 5.328613 0 0 0
27 1 8.182328 0.910159 7.909177 0 0 0
28 1 6.393016 1.961351 10.540604 0 0 0
29 1 8.162713 0.988854 13.130992 0 0 0
30 1 6.519544 1.845924 0.088734 0 0 0
31 1 6.384443 3.860938 2.722855 0 0 0
32 1 4.743482 4.775125 5.391677 0 0 0
33 1 6.546564 3.836638 7.906325 0 0 0
34 1 4.838053 4.593773 10.715695 0 0 0
35 1 6.591381 3.637510 13.256012 0 0 0
36 1 4.911709 4.667687 15.832297 0 0 0
37 1 4.842470 6.551749 2.485492 0 0 0
38 1 3.228270 7.411373 5.131497 0 0 0
39 1 4.885988 6.587637 7.992840 0 0 0
40 1 3.184492 7.550987 10.625693 0 0 0
41 1 4.872478 6.650975 13.287544 0 0 0
42 1 3.246327 7.558975 0.047536 0 0 0
43 1 3.371815 9.288910 2.752485 0 0 0
44 1 1.641480 10.227172 5.425269 0 0 0
45 1 3.335961 9.276647 7.846905 0 0 0
46 1 1.600300 10.341136 10.690818 0 0 0
47 1 3.225542 9.422674 13.348073 0 0 0
48 1 1.607055 10.343049 0.122009 0 0 0
49 1 11.463210 0.857115 2.540475 0 0 0
50 1 9.774314 1.936938 5.195988 0 0 0
51 1 11.332785 0.901756 7.903314 0 0 0
52 1 9.657400 1.930300 10.430638 0 0 0
53 1 11.468146 0.843480 13.288178 0 0 0
54 1 9.833421 1.863925 0.028522 0 0 0
55 1 9.705075 3.808400 2.663752 0 0 0
56 1 8.148033 4.764775 5.262696 0 0 0
57 1 9.842385 3.748549 7.956079 0 0 0
58 1 8.135173 4.737437 10.572929 0 0 0
59 1 9.816793 3.737974 13.329534 0 0 0
60 1 8.011633 4.799876 0.066550 0 0 0
61 1 8.134263 6.482223 2.742344 0 0 0
62 1 6.553709 7.481461 5.204386 0 0 0
63 1 8.070870 6.580999 7.977153 0 0 0
64 1 6.589822 7.434998 10.560252 0 0 0
65 1 8.099579 6.504048 13.280572 0 0 0
66 1 6.571116 7.474373 15.782226 0 0 0
67 1 6.490315 9.325248 2.527007 0 0 0
68 1 4.844289 10.264410 5.194879 0 0 0
69 1 6.532275 9.477912 7.817749 0 0 0
70 1 4.977831 10.328086 10.460902 0 0 0
71 1 6.548253 9.409174 13.145728 0 0 0
72 1 4.877025 10.205684 15.688422 0 0 0
73 1 0.077943 1.786749 5.336060 0 0 0
74 1 0.071448 1.940651 10.624426 0 0 0
75 1 0.115615 1.829612 0.152115 0 0 0
76 1 11.380850 4.722700 5.417346 0 0 0
77 1 11.295113 4.795938 10.453614 0 0 0
78 1 11.481267 4.790426 15.736750 0 0 0
79 1 11.250945 6.510461 2.649966 0 0 0
80 1 9.814325 7.523424 5.218013 0 0 0
81 1 11.349413 6.639725 7.957188 0 0 0
82 1 9.683771 7.503399 10.681152 0 0 0
83 1 11.282122 6.634550 13.097876 0 0 0
84 1 9.638304 7.394610 15.684619 0 0 0
85 1 9.864339 9.462387 2.492623 0 0 0
86 1 8.163232 10.419887 5.187590 0 0 0
87 1 9.634796 9.343361 7.991097 0 0 0
88 1 8.145565 10.301648 10.688916 0 0 0
89 1 9.613752 9.377336 13.086309 0 0 0
90 1 8.120234 10.327974 0.039613 0 0 0
91 1 12.914379 7.464136 5.221657 0 0 0
92 1 0.029878 7.520612 10.617612 0 0 0
93 1 12.903857 7.534337 0.079226 0 0 0
94 1 11.339670 10.289273 5.337169 0 0 0
95 1 11.298490 10.413587 10.442680 0 0 0
96 1 11.369678 10.209510 15.780325 0 0 0
97 2 1.577567 1.038389 4.534288 0 0 0
98 2 1.621085 0.925066 10.010421 0 0 0
99 2 1.498455 1.002433 15.203556 0 0 0
100 2 12.872416 3.753162 4.609870 0 0 0
101 2 12.988261 3.786012 9.910437 0 0 0
102 2 0.062839 3.849913 15.285476 0 0 0
103 2 4.855201 0.845325 4.764362 0 0 0
104 2 3.216059 1.933338 2.082388 0 0 0
105 2 4.950421 0.959064 9.853394 0 0 0
106 2 3.312189 1.869775 7.272830 0 0 0
107 2 4.866243 0.920420 15.087886 0 0 0
108 2 3.190597 1.960001 12.668151 0 0 0
109 2 3.244898 3.773975 4.696069 0 0 0
110 2 1.530281 4.706275 1.889551 0 0 0
111 2 3.134219 3.651911 10.048133 0 0 0
112 2 1.629009 4.608848 7.314345 0 0 0
113 2 3.269450 3.707824 15.245071 0 0 0
114 2 1.597052 4.624486 12.467550 0 0 0
115 2 1.594324 6.457585 4.578497 0 0 0
116 2 1.637323 6.575712 9.771474 0 0 0
117 2 1.645117 6.557149 15.241902 0 0 0
118 2 0.074333 9.305335 4.773235 0 0 0
119 2 0.009111 9.468350 9.954962 0 0 0
120 2 12.900473 9.274397 15.036864 0 0 0
121 2 8.040212 0.943741 4.515432 0 0 0
122 2 6.384313 1.887325 2.138639 0 0 0
123 2 8.031509 0.860243 9.802214 0 0 0
124 2 6.385742 1.924113 7.250805 0 0 0
125 2 8.121663 0.961168 15.311938 0 0 0
126 2 6.397043 1.827812 12.410982 0 0 0
127 2 6.402629 3.652811 4.527158 0 0 0
128 2 4.941198 4.777038 1.991911 0 0 0
129 2 6.584756 3.689036 9.886035 0 0 0
130 2 4.837274 4.731700 7.408783 0 0 0
131 2 6.421985 3.806938 15.196901 0 0 0
132 2 4.938989 4.773213 12.466441 0 0 0
133 2 4.985625 6.456235 4.646473 0 0 0
134 2 3.349082 7.425210 1.962439 0 0 0
135 2 4.826492 6.577849 10.012481 0 0 0
136 2 3.219436 7.527362 7.415279 0 0 0
137 2 4.956786 6.633087 15.334755 0 0 0
138 2 3.165266 7.538499 12.624260 0 0 0
139 2 3.330635 9.415812 4.573109 0 0 0
140 2 1.502871 10.227172 1.917597 0 0 0
141 2 3.335442 9.465425 9.892849 0 0 0
142 2 1.750730 10.207709 7.381846 0 0 0
143 2 3.255030 9.482075 15.310037 0 0 0
144 2 1.535867 10.279598 12.409556 0 0 0
145 2 11.352141 0.924256 4.572159 0 0 0
146 2 9.850569 1.873825 2.052757 0 0 0
147 2 11.409429 1.012165 9.832161 0 0 0
148 2 9.812766 1.854924 7.127053 0 0 0
149 2 11.462950 1.043778 15.069188 0 0 0
150 2 9.745086 1.932550 12.426035 0 0 0
151 2 9.621806 3.736849 4.509728 0 0 0
152 2 8.241565 4.786601 2.123427 0 0 0
153 2 9.868625 3.793437 9.973026 0 0 0
154 2 8.085679 4.589498 7.250013 0 0 0
155 2 9.754049 3.759125 15.281357 0 0 0
156 2 8.145435 4.788176 12.591302 0 0 0
157 2 8.217533 6.477723 4.726333 0 0 0
158 2 6.619311 7.439611 2.116931 0 0 0
159 2 8.164921 6.613175 9.967638 0 0 0
160 2 6.572285 7.506774 7.348570 0 0 0
161 2 8.119974 6.654125 15.071248 0 0 0
162 2 6.586705 7.427010 12.633450 0 0 0
163 2 6.484729 9.398936 4.583884 0 0 0
164 2 4.845977 10.364424 2.130399 0 0 0
165 2 6.593720 9.399836 10.057006 0 0 0
166 2 4.906253 10.374999 7.394205 0 0 0
167 2 6.424194 9.285422 15.294508 0 0 0
168 2 4.851823 10.363749 12.688116 0 0 0
169 2 12.937632 1.832762 2.001894 0 0 0
170 2 0.014290 1.906563 7.298499 0 0 0
171 2 12.902428 1.856499 12.508114 0 0 0
172 2 11.257700 4.628198 2.142759 0 0 0
173 2 11.473083 4.752963 7.152247 0 0 0
174 2 11.379811 4.587135 12.605562 0 0 0
175 2 11.450479 6.655138 4.515274 0 0 0
176 2 9.692214 7.563025 1.982087 0 0 0
177 2 11.379421 6.647713 10.063502 0 0 0
178 2 9.617909 7.466611 7.278851 0 0 0
179 2 11.431123 6.668300 15.252360 0 0 0
180 2 9.684030 7.601613 12.678926 0 0 0
181 2 9.731835 9.427624 4.645522 0 0 0
182 2 8.247411 10.287698 2.107107 0 0 0
183 2 9.845113 9.349436 9.980949 0 0 0
184 2 8.226236 10.403575 7.135293 0 0 0
185 2 9.621676 9.391399 15.035121 0 0 0
186 2 8.040732 10.204784 12.642324 0 0 0
187 2 12.910222 7.601838 2.071772 0 0 0
188 2 0.081840 7.483486 7.204537 0 0 0
189 2 0.046766 7.580800 12.667518 0 0 0
190 2 11.469835 10.389962 1.981454 0 0 0
191 2 11.363703 10.214797 7.254291 0 0 0
192 2 11.391502 10.224922 12.500191 0 0 0
