LAMMPS DATA file

192 atoms
0 bonds
0 angles
0 dihedrals
0 impropers

2 atom types
0 bond types
0 angle types

0.0 12.990503 xlo xhi
0.0 11.250148 ylo yhi
0.0 15.845291 zlo zhi

Masses

1 69.723
2 14.0067

Atoms

1 1 1.691623 0.861638 2.625248 0 0 0
2 1 1.648105 0.844211 7.916307 0 0 0
3 1 1.695780 0.855113 13.262350 0 0 0
4 1 0.085928 3.753049 2.478520 0 0 0
5 1 12.953278 3.856438 7.804598 0 0 0
6 1 0.071388 3.718736 13.129725 0 0 0
7 1 4.882740 0.916640 2.768648 0 0 0
8 1 3.210473 1.787874 5.198681 0 0 0
9 1 4.781934 1.007957 7.958297 0 0 0
10 1 3.289066 1.911963 10.573087 0 0 0
11 1 4.815839 0.846900 13.303864 0 0 0
12 1 3.199561 1.897225 15.829921 0 0 0
13 1 3.288676 3.696236 2.567096 0 0 0
14 1 1.673437 4.794138 5.207396 0 0 0
15 1 3.339599 3.840351 8.024214 0 0 0
16 1 1.689415 4.633374 10.699691 0 0 0
17 1 3.337780 3.827075 13.286751 0 0 0
18 1 1.616928 4.766575 0.129931 0 0 0
19 1 1.500143 6.614075 2.624772 0 0 0
20 1 1.647456 6.671563 8.027066 0 0 0
21 1 1.747612 6.527674 13.128299 0 0 0
22 1 12.942806 9.338298 2.650600 0 0 0
23 1 12.934699 9.468687 7.971290 0 0 0
24 1 0.074174 9.303760 13.085199 0 0 0
25 1 8.003709 0.964149 2.663910 0 0 0
26 1 6.462775 1.767623 5.168258 0 0 0
27 1 8.120883 1.002129 8.000129 0 0 0
28 1 6.608139 1.941438 10.543615 0 0 0
29 1 8.078664 0.854899 13.218300 0 0 0
30 1 6.419257 1.789111 0.079226 0 0 0
31 1 6.484210 3.800863 2.510845 0 0 0
32 1 4.855590 4.700424 5.388983 0 0 0
33 1 6.602293 3.716599 7.876694 0 0 0
34 1 4.768034 4.723037 10.468983 0 0 0
35 1 6.590472 3.726049 13.184391 0 0 0
36 1 4.788689 4.590285 0.083980 0 0 0
37 1 4.949901 6.554336 2.747098 0 0 0
38 1 3.280232 7.428248 5.127378 0 0 0
39 1 4.775309 6.521148 7.990463 0 0 0
40 1 3.318554 7.421048 10.651838 0 0 0
41 1 4.784532 6.611487 13.065393 0 0 0
42 1 3.220086 7.571125 0.004754 0 0 0
43 1 3.363891 9.333910 2.660107 0 0 0
44 1 1.543272 10.288373 5.434301 0 0 0
45 1 3.206966 9.467000 7.979847 0 0 0
46 1 1.501702 10.308398 10.614126 0 0 0
47 1 3.222294 9.297235 13.218300 0 0 0
48 1 1.740598 10.415950 0.150530 0 0 0
49 1 11.453987 0.972182 2.752327 0 0 0
50 1 9.837448 1.934013 5.170160 0 0 0
51 1 11.257440 0.939511 7.788119 0 0 0
52 1 9.726769 1.832762 10.519688 0 0 0
53 1 11.495426 1.020647 13.340942 0 0 0
54 1 9.679094 1.773473 0.099825 0 0 0
55 1 9.791852 3.771612 2.545071 0 0 0
56 1 8.128158 4.587585 5.254457 0 0 0
57 1 9.662466 3.711311 8.055904 0 0 0
58 1 8.209349 4.632924 10.519055 0 0 0
59 1 9.803543 3.813575 13.044160 0 0 0
60 1 8.046707 4.590173 0.060212 0 0 0
61 1 8.216753 6.512486 2.696552 0 0 0
62 1 6.401460 7.471898 5.382645 0 0 0
63 1 8.169987 6.606425 8.029126 0 0 0
64 1 6.441861 7.534112 10.494177 0 0 0
65 1 8.234550 6.625775 13.301963 0 0 0
66 1 6.556567 7.566175 15.809797 0 0 0
67 1 6.399252 9.298473 2.735689 0 0 0
68 1 4.749458 10.322574 5.378842 0 0 0
69 1 6.611776 9.366198 7.780671 0 0 0
70 1 4.877284 10.244160 10.494177 0 0 0
71 1 6.618791 9.299823 13.286751 0 0 0
72 1 4.830259 10.306823 15.713141 0 0 0
73 1 12.876187 1.956401 5.140212 0 0 0
74 1 0.100027 1.851099 10.539020 0 0 0
75 1 12.951662 1.769761 0.066550 0 0 0
76 1 11.328628 4.719325 5.362363 0 0 0
77 1 11.412677 4.684337 10.656909 0 0 0
78 1 11.256531 4.581398 15.818670 0 0 0
79 1 11.274068 6.631850 2.477570 0 0 0
80 1 9.637914 7.482474 5.192343 0 0 0
81 1 11.485294 6.533636 7.914406 0 0 0
82 1 9.682472 7.517237 10.564372 0 0 0
83 1 11.491139 6.598774 13.308618 0 0 0
84 1 9.635576 7.482699 15.694443 0 0 0
85 1 9.769378 9.427174 2.693224 0 0 0
86 1 8.005008 10.352386 5.215160 0 0 0
87 1 9.703516 9.426049 7.792714 0 0 0
88 1 8.054762 10.298948 10.585605 0 0 0
89 1 9.692734 9.360573 13.138756 0 0 0
90 1 8.227146 10.348336 15.737384 0 0 0
91 1 0.037672 7.395510 5.365849 0 0 0
92 1 12.861118 7.474148 10.612700 0 0 0
93 1 12.870861 7.485399 15.736592 0 0 0
94 1 11.388255 10.243147 5.239404 0 0 0
95 1 11.465938 10.200509 10.615077 0 0 0
96 1 11.310182 10.385012 15.774621 0 0 0
97 2 1.595234 1.039007 4.733305 0 0 0
98 2 1.725139 1.034845 9.791280 0 0 0
99 2 1.584452 0.985569 15.230176 0 0 0
100 2 0.086679 3.687124 4.569782 0 0 0
101 2 12.917598 3.643811 9.965895 0 0 0
102 2 12.934944 3.644486 15.122270 0 0 0
103 2 4.770892 0.841129 4.652653 0 0 0
104 2 3.120579 1.952351 1.848670 0 0 0
105 2 4.867282 0.861548 9.884134 0 0 0
106 2 3.341937 1.910275 7.414487 0 0 0
107 2 4.844418 0.917697 15.278980 0 0 0
108 2 3.352069 1.913088 12.445525 0 0 0
109 2 3.200860 3.698599 4.541736 0 0 0
110 2 1.676424 4.644736 2.136262 0 0 0
111 2 3.341807 3.777012 10.028960 0 0 0
112 2 1.573670 4.715950 7.310383 0 0 0
113 2 3.195924 3.768687 15.066178 0 0 0
114 2 1.701366 4.771975 12.596531 0 0 0
115 2 1.508197 6.661213 4.486911 0 0 0
116 2 1.558601 6.534536 9.881440 0 0 0
117 2 1.536777 6.662000 15.072674 0 0 0
118 2 0.066354 9.406699 4.565662 0 0 0
119 2 12.890665 9.477575 10.011530 0 0 0
120 2 12.900143 9.351011 15.178679 0 0 0
121 2 8.180899 1.022031 4.777197 0 0 0
122 2 6.553449 1.902738 2.094589 0 0 0
123 2 8.087368 1.027217 10.000280 0 0 0
124 2 6.601514 1.857399 7.131807 0 0 0
125 2 8.224937 0.962878 15.269948 0 0 0
126 2 6.516166 1.986326 12.443782 0 0 0
127 2 6.549552 3.675086 4.493724 0 0 0
128 2 4.906253 4.699187 2.072406 0 0 0
129 2 6.379636 3.648086 9.934997 0 0 0
130 2 4.939379 4.616723 7.279326 0 0 0
131 2 6.514348 3.773637 15.045103 0 0 0
132 2 4.811682 4.615373 12.558502 0 0 0
133 2 4.932494 6.656600 4.478196 0 0 0
134 2 3.331804 7.578212 1.976542 0 0 0
135 2 4.837793 6.467148 9.804274 0 0 0
136 2 3.292313 7.520387 7.321158 0 0 0
137 2 4.858578 6.628250 15.176619 0 0 0
138 2 3.350121 7.403948 12.592569 0 0 0
139 2 3.327777 9.334923 4.638392 0 0 0
140 2 1.718903 10.320323 2.079219 0 0 0
141 2 3.269969 9.460925 9.890789 0 0 0
142 2 1.518070 10.409312 7.242090 0 0 0
143 2 3.254511 9.418062 15.049382 0 0 0
144 2 1.582373 10.378487 12.393236 0 0 0
145 2 11.250815 0.886680 4.581824 0 0 0
146 2 9.815884 1.804974 1.956576 0 0 0
147 2 11.417093 1.011647 9.923430 0 0 0
148 2 9.850049 1.969001 7.305471 0 0 0
149 2 11.473342 1.026126 15.141601 0 0 0
150 2 9.871873 1.962813 12.506529 0 0 0
151 2 9.816404 3.711424 4.518285 0 0 0
152 2 8.181289 4.717187 2.017739 0 0 0
153 2 9.675457 3.701074 10.003449 0 0 0
154 2 8.141668 4.642936 7.203269 0 0 0
155 2 9.671430 3.751249 15.211162 0 0 0
156 2 8.007086 4.611886 12.552956 0 0 0
157 2 8.129847 6.564799 4.507193 0 0 0
158 2 6.405747 7.479661 2.047528 0 0 0
159 2 8.192071 6.593262 9.934680 0 0 0
160 2 6.618531 7.506774 7.200892 0 0 0
161 2 8.040082 6.498536 15.170757 0 0 0
162 2 6.512659 7.593625 12.491318 0 0 0
163 2 6.438353 9.401861 4.538408 0 0 0
164 2 4.786221 10.203884 1.991278 0 0 0
165 2 6.365996 9.387686 9.926441 0 0 0
166 2 4.760630 10.289386 7.354116 0 0 0
167 2 6.514088 9.353261 15.198010 0 0 0
168 2 4.843509 10.215247 12.637887 0 0 0
169 2 0.068850 1.890475 2.022493 0 0 0
170 2 0.023383 1.901275 7.185364 0 0 0
171 2 0.075345 1.921300 12.625052 0 0 0
172 2 11.272769 4.576335 2.061789 0 0 0
173 2 11.447491 4.702112 7.127053 0 0 0
174 2 11.320704 4.785138 12.661496 0 0 0
175 2 11.415275 6.487735 4.684026 0 0 0
176 2 9.633627 7.513862 1.973214 0 0 0
177 2 11.409559 6.547811 9.760065 0 0 0
178 2 9.727938 7.492711 7.112792 0 0 0
179 2 11.390983 6.517998 15.293874 0 0 0
180 2 9.850958 7.447711 12.484980 0 0 0
181 2 9.637005 9.425937 4.695910 0 0 0
182 2 8.150502 10.284773 2.027563 0 0 0
183 2 9.747424 9.408949 10.026425 0 0 0
184 2 8.075157 10.325611 7.118497 0 0 0
185 2 9.670390 9.439324 15.124330 0 0 0
186 2 8.003969 10.357336 12.593520 0 0 0
187 2 0.038972 7.586200 1.879727 0 0 0
188 2 0.042869 7.473811 7.329081 0 0 0
189 2 12.939580 7.533774 12.505103 0 0 0
190 2 11.473992 10.287586 2.042616 0 0 0
191 2 11.432292 10.244947 7.324486 0 0 0
192 2 11.442295 10.363524 12.446793 0 0 0
