LAMMPS DATA file

64 atoms

1 atom types

0.000000 10.862000 xlo xhi
0.000000 10.862000 ylo yhi
0.000000 10.862000 zlo zhi

Masses

1 28.0855

Atoms

1 1 6.772720 1.264050 1.329380
2 1 9.473310 4.023420 1.342160
3 1 9.531990 1.386150 4.069070
4 1 1.379080 1.359140 1.349960
5 1 4.024670 4.083630 1.382540
6 1 6.770210 6.791210 1.356310
7 1 9.481980 9.513450 1.369830
8 1 4.115020 1.335540 4.071380
9 1 6.827100 4.071040 4.090680
10 1 9.487730 6.746480 4.095280
11 1 6.808050 1.380060 6.788970
12 1 9.524540 4.078130 6.839860
13 1 9.508390 1.377830 9.529460
14 1 1.366270 6.786280 1.348840
15 1 4.065590 9.440920 1.329590
16 1 1.347260 4.082660 4.053420
17 1 4.043730 6.766180 4.024410
18 1 6.799650 9.472720 4.058530
19 1 1.377660 1.397560 6.742680
20 1 4.136930 4.125570 6.777270
21 1 6.788420 6.762440 6.822550
22 1 9.526550 9.494060 6.749950
23 1 4.097970 1.400480 9.481030
24 1 6.767200 4.079860 9.550180
25 1 9.490980 6.810860 9.522420
26 1 1.365260 9.509170 4.099020
27 1 1.334750 6.821140 6.832660
28 1 4.092140 9.546880 6.783460
29 1 1.349150 4.061520 9.506720
30 1 4.033310 6.760060 9.509310
31 1 6.793680 9.508480 9.481660
32 1 1.336360 9.514720 9.447040
33 1 5.400050 -0.038669 -0.031013
34 1 8.125990 2.712650 0.031461
35 1 8.153600 -0.009894 2.737350
36 1 0.046579 -0.039477 0.004633
37 1 2.734890 2.727280 -0.018664
38 1 5.405980 5.423720 0.030283
39 1 8.121030 8.164950 -0.004221
40 1 2.723050 -0.010691 2.739770
41 1 5.483970 2.699650 2.699730
42 1 8.163540 5.389890 2.692890
43 1 5.441950 0.011782 5.414950
44 1 8.191750 2.715200 5.423550
45 1 8.167020 0.019428 8.122720
46 1 -0.044617 5.416010 0.028539
47 1 2.643520 8.169130 0.004579
48 1 0.020111 2.712860 2.707000
49 1 2.663480 5.425650 2.721430
50 1 5.393650 8.147450 2.707960
51 1 0.016911 0.040994 5.406980
52 1 2.762200 2.729610 5.426120
53 1 5.433410 5.466950 5.431120
54 1 8.128100 8.117130 5.447140
55 1 2.728170 0.034584 8.139900
56 1 5.438380 2.719120 8.174880
57 1 8.130730 5.444020 8.174140
58 1 -0.031122 8.168030 2.716080
59 1 0.018691 5.451590 5.459170
60 1 2.733930 8.130030 5.422120
61 1 0.035341 2.721570 8.146890
62 1 2.718100 5.431430 8.136940
63 1 5.423620 8.130660 8.149840
64 1 -0.053680 8.161700 8.156090
