LAMMPS DATA file

64 atoms

1 atom types

0.000000 10.862000 xlo xhi
0.000000 10.862000 ylo yhi
0.000000 10.862000 zlo zhi

Masses

1 28.0855

Atoms

1 1 6.815690 1.381880 1.350990
2 1 9.519200 4.068350 1.368420
3 1 9.501560 1.341320 4.100860
4 1 1.321030 1.361310 1.310900
5 1 4.099880 4.093360 1.342780
6 1 6.732100 6.766310 1.386030
7 1 9.450210 9.430800 1.346880
8 1 4.059060 1.394340 4.056200
9 1 6.764020 4.061060 4.101190
10 1 9.501750 6.808050 4.106070
11 1 6.782810 1.320380 6.820540
12 1 9.486980 4.119680 6.751810
13 1 9.485080 1.355610 9.512520
14 1 1.372270 6.776420 1.347800
15 1 4.090130 9.509050 1.377590
16 1 1.363790 4.061990 4.112340
17 1 4.079470 6.783880 4.078600
18 1 6.824590 9.504310 4.070250
19 1 1.385570 1.354010 6.805250
20 1 4.056140 4.029090 6.805750
21 1 6.816900 6.798780 6.789630
22 1 9.524350 9.531040 6.845740
23 1 4.090470 1.374800 9.475490
24 1 6.791210 4.057100 9.439240
25 1 9.488220 6.775080 9.492100
26 1 1.384960 9.466560 4.032090
27 1 1.364950 6.840570 6.752630
28 1 4.081480 9.506630 6.755810
29 1 1.333140 4.095160 9.534560
30 1 4.061700 6.763790 9.497390
31 1 6.809910 9.524910 9.532700
32 1 1.335890 9.534370 9.495460
33 1 5.447160 0.025446 0.019747
34 1 8.166410 2.747380 -0.012647
35 1 8.135070 -0.004307 2.691840
36 1 -0.019252 -0.030718 0.002949
37 1 2.717560 2.689870 0.005379
38 1 5.471590 5.387010 -0.025096
39 1 8.129650 8.108870 -0.016420
40 1 2.674140 0.007318 2.704020
41 1 5.471830 2.714490 2.723970
42 1 8.126880 5.423130 2.760620
43 1 5.408140 0.000853 5.409380
44 1 8.134410 2.674480 5.394340
45 1 8.151250 -0.015062 8.166440
46 1 0.004968 5.475940 0.022353
47 1 2.696050 8.172710 0.035750
48 1 0.032170 2.719120 2.737920
49 1 2.702100 5.415410 2.743410
50 1 5.425670 8.175740 2.739230
51 1 0.069974 -0.037122 5.435700
52 1 2.730180 2.683220 5.460790
53 1 5.378330 5.422710 5.484730
54 1 8.172320 8.163810 5.444910
55 1 2.750470 0.000293 8.141250
56 1 5.429660 2.669650 8.143020
57 1 8.159320 5.461040 8.099800
58 1 -0.004488 8.157350 2.680690
59 1 -0.009174 5.474310 5.399900
60 1 2.722150 8.174360 5.388000
61 1 0.017113 2.707350 8.144820
62 1 2.717040 5.434910 8.118130
63 1 5.402530 8.192280 8.131030
64 1 -0.049710 8.154180 8.164450
