LAMMPS DATA file

192 atoms
0 bonds
0 angles
0 dihedrals
0 impropers

2 atom types
0 bond types
0 angle types

0.0 12.990503 xlo xhi
0.0 11.250148 ylo yhi
0.0 15.845291 zlo zhi

Masses

1 69.723
2 14.0067

Atoms

1 1 1.603028 0.880302 2.629051 0 0 0
2 1 1.667721 1.016800 8.058281 0 0 0
3 1 1.527293 0.981755 13.065868 0 0 0
4 1 12.887507 3.667098 2.640142 0 0 0
5 1 12.985771 3.737862 8.011696 0 0 0
6 1 0.007520 3.788037 13.193581 0 0 0
7 1 4.827921 0.883238 2.785444 0 0 0
8 1 3.186441 1.940313 5.275373 0 0 0
9 1 4.824933 0.963676 7.760865 0 0 0
10 1 3.134089 1.969563 10.686698 0 0 0
11 1 4.957566 1.030592 13.255695 0 0 0
12 1 3.319593 1.918600 15.744356 0 0 0
13 1 3.235285 3.815038 2.477570 0 0 0
14 1 1.638232 4.672524 5.136409 0 0 0
15 1 3.232557 3.826513 7.954653 0 0 0
16 1 1.686557 4.785588 10.502734 0 0 0
17 1 3.311539 3.833938 13.177736 0 0 0
18 1 1.629399 4.721912 15.829921 0 0 0
19 1 1.541583 6.500898 2.607501 0 0 0
20 1 1.497935 6.619025 7.778453 0 0 0
21 1 1.606016 6.572224 13.233828 0 0 0
22 1 12.973938 9.280810 2.566937 0 0 0
23 1 12.879625 9.426837 7.868454 0 0 0
24 1 0.039546 9.371036 13.161732 0 0 0
25 1 8.074117 0.848194 2.594349 0 0 0
26 1 6.463425 1.870900 5.369969 0 0 0
27 1 8.168818 1.016215 7.921061 0 0 0
28 1 6.587484 1.867300 10.483561 0 0 0
29 1 8.152710 0.951628 13.211962 0 0 0
30 1 6.467582 1.857174 15.724866 0 0 0
31 1 6.441211 3.639198 2.772450 0 0 0
32 1 4.899888 4.775688 5.251129 0 0 0
33 1 6.469271 3.762162 7.947681 0 0 0
34 1 4.873127 4.707175 10.441730 0 0 0
35 1 6.563192 3.784100 13.151750 0 0 0
36 1 4.822724 4.636749 15.728669 0 0 0
37 1 4.828440 6.637475 2.550933 0 0 0
38 1 3.135648 7.498899 5.156533 0 0 0
39 1 4.846107 6.470635 7.986977 0 0 0
40 1 3.206706 7.514987 10.606996 0 0 0
41 1 4.911060 6.607775 13.135904 0 0 0
42 1 3.139935 7.530174 15.765747 0 0 0
43 1 3.350121 9.330198 2.703523 0 0 0
44 1 1.579775 10.282185 5.305479 0 0 0
45 1 3.352849 9.322098 8.059707 0 0 0
46 1 1.685778 10.201184 10.669268 0 0 0
47 1 3.298419 9.389149 13.147471 0 0 0
48 1 1.580425 10.217497 15.826593 0 0 0
49 1 11.407481 0.953698 2.604332 0 0 0
50 1 9.855765 1.843674 5.418139 0 0 0
51 1 11.244580 0.924256 7.980797 0 0 0
52 1 9.795619 1.877312 10.593686 0 0 0
53 1 11.430734 1.005336 13.147154 0 0 0
54 1 9.759505 1.954938 0.022183 0 0 0
55 1 9.744956 3.829550 2.693699 0 0 0
56 1 8.016829 4.688049 5.123892 0 0 0
57 1 9.727938 3.841701 7.772907 0 0 0
58 1 8.234680 4.615598 10.516836 0 0 0
59 1 9.666233 3.658998 13.177577 0 0 0
60 1 8.061257 4.597711 15.839428 0 0 0
61 1 8.051254 6.528799 2.653928 0 0 0
62 1 6.507722 7.482361 5.240038 0 0 0
63 1 8.088017 6.513273 7.815690 0 0 0
64 1 6.398472 7.391122 10.638211 0 0 0
65 1 8.120364 6.612612 13.281681 0 0 0
66 1 6.435235 7.431173 15.701732 0 0 0
67 1 6.475896 9.420649 2.786711 0 0 0
68 1 4.884819 10.209960 5.302310 0 0 0
69 1 6.437704 9.384649 7.899194 0 0 0
70 1 4.771931 10.285673 10.642014 0 0 0
71 1 6.603982 9.418512 13.348073 0 0 0
72 1 4.774270 10.345636 15.803934 0 0 0
73 1 0.015589 1.807111 5.242731 0 0 0
74 1 12.948934 1.842774 10.517787 0 0 0
75 1 12.890606 1.875287 0.095072 0 0 0
76 1 11.326030 4.687262 5.155265 0 0 0
77 1 11.386306 4.691087 10.512241 0 0 0
78 1 11.461131 4.652499 15.826118 0 0 0
79 1 11.298620 6.623637 2.563610 0 0 0
80 1 9.749373 7.507111 5.394688 0 0 0
81 1 11.480357 6.461073 8.068897 0 0 0
82 1 9.777302 7.403948 10.466765 0 0 0
83 1 11.330317 6.546124 13.280730 0 0 0
84 1 9.850829 7.529274 0.139439 0 0 0
85 1 9.809129 9.381049 2.746306 0 0 0
86 1 8.201164 10.229872 5.358877 0 0 0
87 1 9.773275 9.352136 8.025323 0 0 0
88 1 7.999162 10.221772 10.700008 0 0 0
89 1 9.715857 9.382399 13.326840 0 0 0
90 1 8.077495 10.349461 0.066550 0 0 0
91 1 12.918536 7.512624 5.262063 0 0 0
92 1 0.028579 7.510036 10.563897 0 0 0
93 1 12.934904 7.585412 0.133100 0 0 0
94 1 11.446192 10.418200 5.283929 0 0 0
95 1 11.266144 10.346424 10.460110 0 0 0
96 1 11.459443 10.412237 15.714092 0 0 0
97 2 1.570942 1.004796 4.608603 0 0 0
98 2 1.621864 0.831656 9.931828 0 0 0
99 2 1.642649 0.991892 15.056354 0 0 0
100 2 0.074611 3.681049 4.636807 0 0 0
101 2 0.110195 3.859363 10.059383 0 0 0
102 2 12.939782 3.807163 15.097551 0 0 0
103 2 4.965360 0.973025 4.501013 0 0 0
104 2 3.268541 1.979351 2.095381 0 0 0
105 2 4.937171 0.983195 9.828517 0 0 0
106 2 3.128113 1.866512 7.146701 0 0 0
107 2 4.783493 0.919452 15.243170 0 0 0
108 2 3.370516 1.825449 12.559611 0 0 0
109 2 3.359474 3.675086 4.718728 0 0 0
110 2 1.520668 4.773888 1.993179 0 0 0
111 2 3.370776 3.807725 9.979364 0 0 0
112 2 1.494557 4.621336 7.192019 0 0 0
113 2 3.138506 3.803000 15.292765 0 0 0
114 2 1.583153 4.605698 12.602235 0 0 0
115 2 1.709680 6.601699 4.512739 0 0 0
116 2 1.592376 6.602712 9.913764 0 0 0
117 2 1.748002 6.510348 15.306868 0 0 0
118 2 12.957705 9.293410 4.494834 0 0 0
119 2 0.062050 9.346286 9.870982 0 0 0
120 2 12.939108 9.328848 15.114506 0 0 0
121 2 8.109581 1.047276 4.590539 0 0 0
122 2 6.610347 1.800136 2.120892 0 0 0
123 2 8.185186 1.017745 9.941177 0 0 0
124 2 6.393276 1.865050 7.316880 0 0 0
125 2 8.004099 0.829788 15.124013 0 0 0
126 2 6.607360 1.878212 12.668627 0 0 0
127 2 6.463555 3.836526 4.638075 0 0 0
128 2 4.973414 4.598161 1.894938 0 0 0
129 2 6.547603 3.718849 9.750716 0 0 0
130 2 4.841431 4.647099 7.234167 0 0 0
131 2 6.412502 3.684649 15.220194 0 0 0
132 2 4.895991 4.613911 12.686849 0 0 0
133 2 4.756083 6.495498 4.629677 0 0 0
134 2 3.314917 7.420485 2.122794 0 0 0
135 2 4.851174 6.462760 9.963994 0 0 0
136 2 3.190468 7.563137 7.414645 0 0 0
137 2 4.920413 6.562211 15.063484 0 0 0
138 2 3.192416 7.508686 12.394820 0 0 0
139 2 3.191247 9.395224 4.523038 0 0 0
140 2 1.538076 10.352274 2.008232 0 0 0
141 2 3.261006 9.480275 9.949416 0 0 0
142 2 1.578216 10.317398 7.383588 0 0 0
143 2 3.375972 9.451250 15.142235 0 0 0
144 2 1.688636 10.411562 12.602869 0 0 0
145 2 11.361754 0.889392 4.657248 0 0 0
146 2 9.700398 1.978451 1.967827 0 0 0
147 2 11.486723 0.977199 9.974135 0 0 0
148 2 9.861741 1.973951 7.373606 0 0 0
149 2 11.277056 1.011861 15.179155 0 0 0
150 2 9.690526 1.880237 12.654841 0 0 0
151 2 9.753010 3.696011 4.580715 0 0 0
152 2 8.037614 4.653961 1.887808 0 0 0
153 2 9.830044 3.724024 9.753410 0 0 0
154 2 8.069441 4.763313 7.198674 0 0 0
155 2 9.816014 3.757100 15.080914 0 0 0
156 2 8.125560 4.638774 12.617763 0 0 0
157 2 8.179990 6.551299 4.526207 0 0 0
158 2 6.400551 7.448948 2.029148 0 0 0
159 2 8.198566 6.600349 9.841193 0 0 0
160 2 6.402370 7.442873 7.328764 0 0 0
161 2 8.007866 6.562324 15.344579 0 0 0
162 2 6.600475 7.517012 12.634084 0 0 0
163 2 6.559425 9.419074 4.683234 0 0 0
164 2 4.814930 10.331011 2.023761 0 0 0
165 2 6.576832 9.266185 9.818217 0 0 0
166 2 4.998226 10.383999 7.309749 0 0 0
167 2 6.542537 9.444499 15.120685 0 0 0
168 2 4.914307 10.206697 12.563731 0 0 0
169 2 0.007794 1.958988 1.887174 0 0 0
170 2 0.111718 1.982164 7.214361 0 0 0
171 2 0.032476 1.881137 12.536635 0 0 0
172 2 11.329927 4.650249 1.854057 0 0 0
173 2 11.338241 4.628873 7.263481 0 0 0
174 2 11.418652 4.605923 12.653098 0 0 0
175 2 11.478409 6.636575 4.622230 0 0 0
176 2 9.784447 7.490236 1.960379 0 0 0
177 2 11.245749 6.658625 9.764026 0 0 0
178 2 9.736642 7.474373 7.278693 0 0 0
179 2 11.496076 6.653113 15.036705 0 0 0
180 2 9.815754 7.496761 12.514927 0 0 0
181 2 9.826796 9.459350 4.784961 0 0 0
182 2 8.039952 10.395924 1.925203 0 0 0
183 2 9.719754 9.446299 9.867021 0 0 0
184 2 8.099839 10.220647 7.321000 0 0 0
185 2 9.803023 9.330310 15.139224 0 0 0
186 2 8.179990 10.421912 12.612693 0 0 0
187 2 12.883981 7.493499 2.028989 0 0 0
188 2 0.006495 7.419360 7.196773 0 0 0
189 2 0.126008 7.566512 12.687007 0 0 0
190 2 11.327329 10.247198 2.043250 0 0 0
191 2 11.329148 10.298723 7.397374 0 0 0
192 2 11.453337 10.288148 12.623785 0 0 0
