LAMMPS DATA file

192 atoms
0 bonds
0 angles
0 dihedrals
0 impropers

2 atom types
0 bond types
0 angle types

0.0 12.990503 xlo xhi
0.0 11.250148 ylo yhi
0.0 15.845291 zlo zhi

Masses

1 69.723
2 14.0067

Atoms

1 1 1.685908 1.013425 2.593399 0 0 0
2 1 1.526904 0.841511 8.041485 0 0 0
3 1 1.554963 0.997629 13.194849 0 0 0
4 1 0.077017 3.707036 2.638082 0 0 0
5 1 0.079795 3.806375 8.031819 0 0 0
6 1 0.013848 3.816613 13.341418 0 0 0
7 1 4.935352 0.838957 2.537306 0 0 0
8 1 3.311669 1.787086 5.427329 0 0 0
9 1 4.942497 1.048728 7.859264 0 0 0
10 1 3.308421 1.946051 10.531255 0 0 0
11 1 4.857539 0.954654 13.282156 0 0 0
12 1 3.278543 1.833324 0.090318 0 0 0
13 1 3.315956 3.692861 2.637766 0 0 0
14 1 1.532100 4.604236 5.327187 0 0 0
15 1 3.136687 3.682849 8.028333 0 0 0
16 1 1.648755 4.727425 10.705395 0 0 0
17 1 3.326998 3.806488 13.293565 0 0 0
18 1 1.565096 4.667912 15.767966 0 0 0
19 1 1.549767 6.514173 2.693858 0 0 0
20 1 1.606925 6.576049 7.822345 0 0 0
21 1 1.652392 6.627575 13.060005 0 0 0
22 1 0.127045 9.402424 2.785761 0 0 0
23 1 0.092151 9.271472 7.899828 0 0 0
24 1 12.944574 9.297460 13.317491 0 0 0
25 1 8.080613 0.914963 2.765637 0 0 0
26 1 6.468751 1.869437 5.401184 0 0 0
27 1 8.167779 0.973509 8.004249 0 0 0
28 1 6.575403 1.834112 10.402592 0 0 0
29 1 8.226626 0.846956 13.314322 0 0 0
30 1 6.614245 1.957188 0.049120 0 0 0
31 1 6.509801 3.739099 2.581515 0 0 0
32 1 4.764397 4.649686 5.386607 0 0 0
33 1 6.386521 3.669011 7.849757 0 0 0
34 1 4.956656 4.699862 10.501149 0 0 0
35 1 6.567869 3.834951 13.221310 0 0 0
36 1 4.886897 4.734962 15.786663 0 0 0
37 1 4.985106 6.476485 2.728717 0 0 0
38 1 3.203458 7.413398 5.292010 0 0 0
39 1 4.910670 6.588087 7.996960 0 0 0
40 1 3.159940 7.561562 10.644074 0 0 0
41 1 4.963541 6.572224 13.228758 0 0 0
42 1 3.186051 7.499124 0.150530 0 0 0
43 1 3.152665 9.337061 2.481689 0 0 0
44 1 1.704484 10.363862 5.371712 0 0 0
45 1 3.221645 9.446974 7.978104 0 0 0
46 1 1.731764 10.344511 10.609214 0 0 0
47 1 3.121228 9.456987 13.100094 0 0 0
48 1 1.562628 10.240897 0.006338 0 0 0
49 1 11.371497 0.982700 2.725548 0 0 0
50 1 9.679354 1.968438 5.221657 0 0 0
51 1 11.282642 0.876510 7.802855 0 0 0
52 1 9.762233 1.907013 10.478491 0 0 0
53 1 11.390073 0.906166 13.268529 0 0 0
54 1 9.700139 1.870112 15.752279 0 0 0
55 1 9.723262 3.777462 2.505933 0 0 0
56 1 8.027871 4.608736 5.145917 0 0 0
57 1 9.789124 3.761937 8.014073 0 0 0
58 1 8.093084 4.704249 10.485621 0 0 0
59 1 9.770547 3.842938 13.221627 0 0 0
60 1 8.245072 4.579148 15.827385 0 0 0
61 1 8.120104 6.610812 2.695759 0 0 0
62 1 6.623208 7.448048 5.292485 0 0 0
63 1 8.004488 6.506636 7.929300 0 0 0
64 1 6.492004 7.456148 10.444265 0 0 0
65 1 8.078015 6.638825 13.240166 0 0 0
66 1 6.429260 7.495299 0.150530 0 0 0
67 1 6.554099 9.269222 2.652026 0 0 0
68 1 4.907422 10.285223 5.198681 0 0 0
69 1 6.510451 9.432462 7.789228 0 0 0
70 1 4.849874 10.311886 10.671645 0 0 0
71 1 6.520063 9.406474 13.059055 0 0 0
72 1 4.867542 10.229197 0.049120 0 0 0
73 1 0.068850 1.790236 5.345409 0 0 0
74 1 0.048065 1.770098 10.694304 0 0 0
75 1 0.007794 1.808236 0.017430 0 0 0
76 1 11.415924 4.634611 5.255408 0 0 0
77 1 11.439827 4.782776 10.524442 0 0 0
78 1 11.338111 4.724950 0.137854 0 0 0
79 1 11.475421 6.532961 2.655354 0 0 0
80 1 9.820950 7.589688 5.410691 0 0 0
81 1 11.344087 6.495836 7.822028 0 0 0
82 1 9.613752 7.608925 10.691293 0 0 0
83 1 11.438398 6.628812 13.215289 0 0 0
84 1 9.797827 7.401698 15.700940 0 0 0
85 1 9.770547 9.318160 2.477570 0 0 0
86 1 8.188174 10.295911 5.431449 0 0 0
87 1 9.631289 9.290597 8.065570 0 0 0
88 1 8.217013 10.254173 10.563104 0 0 0
89 1 9.633497 9.405686 13.235730 0 0 0
90 1 8.165700 10.389062 0.079226 0 0 0
91 1 12.874758 7.406085 5.289950 0 0 0
92 1 12.944257 7.442536 10.406711 0 0 0
93 1 12.904896 7.601613 15.788564 0 0 0
94 1 11.366171 10.283423 5.327345 0 0 0
95 1 11.357727 10.400987 10.481818 0 0 0
96 1 11.413586 10.319648 15.696028 0 0 0
97 2 1.670059 0.892137 4.501964 0 0 0
98 2 1.615369 0.978527 9.997586 0 0 0
99 2 1.708901 0.921331 15.191989 0 0 0
100 2 0.034874 3.801088 4.599412 0 0 0
101 2 12.953174 3.709849 9.896810 0 0 0
102 2 0.042623 3.782862 15.141126 0 0 0
103 2 4.894692 1.015517 4.524940 0 0 0
104 2 3.194754 1.772798 2.081279 0 0 0
105 2 4.948342 0.914041 9.851651 0 0 0
106 2 3.375452 1.886537 7.114060 0 0 0
107 2 4.964711 0.958614 15.305125 0 0 0
108 2 3.319593 1.786074 12.516195 0 0 0
109 2 3.371295 3.752374 4.593233 0 0 0
110 2 1.638232 4.794588 1.969570 0 0 0
111 2 3.342197 3.669686 9.780664 0 0 0
112 2 1.584192 4.591410 7.282020 0 0 0
113 2 3.368567 3.700849 15.057463 0 0 0
114 2 1.531840 4.611773 12.561829 0 0 0
115 2 1.615759 6.509786 4.682283 0 0 0
116 2 1.526254 6.506748 9.937057 0 0 0
117 2 1.585101 6.567724 15.138274 0 0 0
118 2 12.866714 9.353036 4.628568 0 0 0
119 2 12.894268 9.400511 10.055738 0 0 0
120 2 12.883894 9.332110 15.199753 0 0 0
121 2 8.105424 1.036499 4.697019 0 0 0
122 2 6.557086 1.906338 1.838846 0 0 0
123 2 8.155828 0.896693 9.782407 0 0 0
124 2 6.386391 1.965513 7.189484 0 0 0
125 2 8.117765 0.912331 15.115615 0 0 0
126 2 6.433677 1.919950 12.409239 0 0 0
127 2 6.570207 3.703324 4.734573 0 0 0
128 2 4.867412 4.627636 1.897632 0 0 0
129 2 6.447057 3.861501 9.810295 0 0 0
130 2 4.962502 4.764888 7.276950 0 0 0
131 2 6.538120 3.720762 15.132728 0 0 0
132 2 4.952110 4.598161 12.458677 0 0 0
133 2 4.857539 6.537011 4.714132 0 0 0
134 2 3.240871 7.566850 1.835518 0 0 0
135 2 5.001084 6.513723 9.993625 0 0 0
136 2 3.126814 7.583387 7.344926 0 0 0
137 2 4.769983 6.645125 15.292448 0 0 0
138 2 3.118760 7.536137 12.591619 0 0 0
139 2 3.172411 9.360461 4.764204 0 0 0
140 2 1.612771 10.224922 2.043092 0 0 0
141 2 3.370126 9.360573 9.825823 0 0 0
142 2 1.724489 10.414487 7.233534 0 0 0
143 2 3.316086 9.285085 15.103097 0 0 0
144 2 1.520538 10.205009 12.555016 0 0 0
145 2 11.303946 0.832635 4.706210 0 0 0
146 2 9.753660 1.961013 2.005538 0 0 0
147 2 11.488411 0.994322 10.051143 0 0 0
148 2 9.804972 1.821849 7.137194 0 0 0
149 2 11.415015 1.007361 15.079963 0 0 0
150 2 9.694553 1.872137 12.614277 0 0 0
151 2 9.767819 3.649773 4.776404 0 0 0
152 2 8.138420 4.704362 2.010609 0 0 0
153 2 9.769118 3.668111 9.761333 0 0 0
154 2 8.096721 4.636524 7.327972 0 0 0
155 2 9.869015 3.693086 15.275019 0 0 0
156 2 8.162323 4.695699 12.676549 0 0 0
157 2 8.162453 6.572337 4.496893 0 0 0
158 2 6.372621 7.603525 2.059729 0 0 0
159 2 8.220520 6.651538 10.002023 0 0 0
160 2 6.504345 7.464586 7.198516 0 0 0
161 2 8.112439 6.451960 15.166795 0 0 0
162 2 6.551890 7.479999 12.582745 0 0 0
163 2 6.518894 9.482862 4.555996 0 0 0
164 2 4.752706 10.396037 2.109008 0 0 0
165 2 6.461996 9.296110 9.803957 0 0 0
166 2 4.783883 10.334049 7.379310 0 0 0
167 2 6.376778 9.395449 15.110703 0 0 0
168 2 4.798302 10.364087 12.449169 0 0 0
169 2 12.888398 1.864487 1.889076 0 0 0
170 2 12.957248 1.803849 7.390402 0 0 0
171 2 12.916068 1.884625 12.443624 0 0 0
172 2 11.353310 4.760163 1.977492 0 0 0
173 2 11.465288 4.722812 7.283129 0 0 0
174 2 11.371497 4.670724 12.648662 0 0 0
175 2 11.403583 6.491561 4.784802 0 0 0
176 2 9.739890 7.502161 2.069870 0 0 0
177 2 11.412027 6.613287 9.820753 0 0 0
178 2 9.712480 7.465486 7.376300 0 0 0
179 2 11.490230 6.513611 15.341252 0 0 0
180 2 9.769378 7.429710 12.538062 0 0 0
181 2 9.645189 9.420087 4.708903 0 0 0
182 2 8.113738 10.353849 2.055293 0 0 0
183 2 9.668312 9.294197 9.902673 0 0 0
184 2 8.248840 10.398287 7.121824 0 0 0
185 2 9.859402 9.463512 15.099453 0 0 0
186 2 8.244293 10.257435 12.589876 0 0 0
187 2 0.005196 7.498899 1.905872 0 0 0
188 2 12.877096 7.425548 7.320207 0 0 0
189 2 0.053261 7.580687 12.476740 0 0 0
190 2 11.242631 10.325724 1.890819 0 0 0
191 2 11.475811 10.262048 7.182036 0 0 0
192 2 11.371367 10.257773 12.396405 0 0 0
