LAMMPS DATA file

64 atoms

1 atom types

0.000000 10.862000 xlo xhi
0.000000 10.862000 ylo yhi
0.000000 10.862000 zlo zhi

Masses

1 28.0855

Atoms

1 1 6.817470 1.311160 1.365520
2 1 9.517050 4.053500 1.384190
3 1 9.509460 1.391780 4.055890
4 1 1.374690 1.369430 1.336020
5 1 4.054770 4.047900 1.345460
6 1 6.741970 6.773350 1.355820
7 1 9.505020 9.521630 1.326420
8 1 4.077780 1.388180 4.079240
9 1 6.819550 4.029570 4.090710
10 1 9.481900 6.786120 4.122270
11 1 6.804910 1.372450 6.778010
12 1 9.536450 4.086320 6.786650
13 1 9.515760 1.377250 9.502250
14 1 1.347700 6.768040 1.344590
15 1 4.089490 9.454380 1.370560
16 1 1.369080 4.057210 4.047990
17 1 4.054440 6.797050 4.057670
18 1 6.771200 9.481220 3.991370
19 1 1.395580 1.346360 6.760970
20 1 4.110230 4.104600 6.804650
21 1 6.808840 6.772600 6.789750
22 1 9.491170 9.488300 6.772800
23 1 4.067670 1.360930 9.503610
24 1 6.772890 4.086480 9.536890
25 1 9.492570 6.782020 9.510250
26 1 1.345630 9.519200 4.089580
27 1 1.370300 6.793030 6.796580
28 1 4.045010 9.514060 6.792110
29 1 1.335630 4.099650 9.513540
30 1 4.043420 6.803920 9.533300
31 1 6.792780 9.530470 9.470410
32 1 1.366600 9.482620 9.512910
33 1 5.426540 -0.019185 -0.013318
34 1 8.095160 2.718400 0.034960
35 1 8.147590 0.006502 2.748050
36 1 0.044337 0.010071 -0.010332
37 1 2.662720 2.704310 -0.034013
38 1 5.372680 5.417560 0.019618
39 1 8.148720 8.143610 -0.000549
40 1 2.720470 -0.039914 2.694750
41 1 5.471130 2.709100 2.709800
42 1 8.108060 5.400680 2.736530
43 1 5.461630 -0.012392 5.437320
44 1 8.218600 2.717480 5.430850
45 1 8.153260 -0.007342 8.127640
46 1 -0.016563 5.422790 0.017608
47 1 2.702380 8.128450 0.004958
48 1 -0.001141 2.743770 2.692400
49 1 2.697880 5.437880 2.702210
50 1 5.426910 8.125640 2.682190
51 1 -0.017690 0.041873 5.436180
52 1 2.749000 2.763270 5.403100
53 1 5.458600 5.466540 5.422430
54 1 8.120930 8.113120 5.421520
55 1 2.710190 0.052181 8.157230
56 1 5.438210 2.760150 8.165150
57 1 8.163620 5.446400 8.192420
58 1 0.005197 8.150820 2.716340
59 1 0.015289 5.410310 5.453960
60 1 2.713700 8.148780 5.463110
61 1 0.020446 2.689960 8.152500
62 1 2.736550 5.432740 8.138150
63 1 5.395790 8.152870 8.123030
64 1 -0.041182 8.148770 8.182210
