LAMMPS DATA file

192 atoms
0 bonds
0 angles
0 dihedrals
0 impropers

2 atom types
0 bond types
0 angle types

0.0 12.990503 xlo xhi
0.0 11.250148 ylo yhi
0.0 15.845291 zlo zhi

Masses

1 69.723
2 14.0067

Atoms

1 1 1.583153 1.035621 2.516549 0 0 0
2 1 1.683699 0.970472 8.022788 0 0 0
3 1 1.597442 0.993726 13.305132 0 0 0
4 1 12.944378 3.761825 2.787187 0 0 0
5 1 0.012813 3.711874 7.954970 0 0 0
6 1 12.954297 3.807725 13.171715 0 0 0
7 1 4.869490 0.981328 2.785285 0 0 0
8 1 3.202809 1.951001 5.352064 0 0 0
9 1 4.989392 0.832196 7.871782 0 0 0
10 1 3.289845 1.825899 10.472628 0 0 0
11 1 4.926259 0.965544 13.227649 0 0 0
12 1 3.289325 1.773248 15.791892 0 0 0
13 1 3.235025 3.691736 2.703523 0 0 0
14 1 1.716305 4.638436 5.349529 0 0 0
15 1 3.153575 3.825838 7.802696 0 0 0
16 1 1.646676 4.657449 10.655324 0 0 0
17 1 3.248665 3.747762 13.318442 0 0 0
18 1 1.585621 4.676237 0.141023 0 0 0
19 1 1.504950 6.668975 2.536831 0 0 0
20 1 1.667201 6.582012 7.972716 0 0 0
21 1 1.587699 6.589662 13.297526 0 0 0
22 1 12.865603 9.281485 2.785919 0 0 0
23 1 0.039324 9.314673 7.886518 0 0 0
24 1 12.892302 9.322998 13.122119 0 0 0
25 1 8.075287 0.859264 2.587219 0 0 0
26 1 6.396914 1.961463 5.147660 0 0 0
27 1 8.230783 0.914795 7.773700 0 0 0
28 1 6.454332 1.928163 10.651363 0 0 0
29 1 8.130756 0.979415 13.323671 0 0 0
30 1 6.379636 1.830849 15.696028 0 0 0
31 1 6.416139 3.799625 2.705742 0 0 0
32 1 4.969647 4.706162 5.140212 0 0 0
33 1 6.605151 3.817625 7.849282 0 0 0
34 1 4.882740 4.796613 10.626327 0 0 0
35 1 6.583327 3.735049 13.189620 0 0 0
36 1 4.887157 4.635624 0.072888 0 0 0
37 1 4.872478 6.595624 2.574543 0 0 0
38 1 3.153704 7.494624 5.232749 0 0 0
39 1 4.946264 6.625662 7.970498 0 0 0
40 1 3.152405 7.392472 10.577048 0 0 0
41 1 4.819737 6.661438 13.351400 0 0 0
42 1 3.192156 7.567750 0.120424 0 0 0
43 1 3.272957 9.461487 2.776095 0 0 0
44 1 1.636544 10.363974 5.300567 0 0 0
45 1 3.124476 9.363048 7.963526 0 0 0
46 1 1.629269 10.283873 10.696522 0 0 0
47 1 3.333233 9.453612 13.158563 0 0 0
48 1 1.647975 10.396487 0.131516 0 0 0
49 1 11.410468 0.871538 2.684192 0 0 0
50 1 9.631679 1.854024 5.329247 0 0 0
51 1 11.479318 1.007473 7.912187 0 0 0
52 1 9.809519 1.856387 10.707614 0 0 0
53 1 11.493478 1.019443 13.163792 0 0 0
54 1 9.731056 1.818024 0.083980 0 0 0
55 1 9.842385 3.843163 2.653928 0 0 0
56 1 8.144786 4.608511 5.402927 0 0 0
57 1 9.730017 3.683861 8.043862 0 0 0
58 1 8.187265 4.773663 10.489899 0 0 0
59 1 9.787825 3.787025 13.079337 0 0 0
60 1 8.095032 4.636974 0.063381 0 0 0
61 1 8.062816 6.651763 2.738858 0 0 0
62 1 6.466673 7.499574 5.337961 0 0 0
63 1 8.205971 6.587299 7.940867 0 0 0
64 1 6.450045 7.490349 10.625852 0 0 0
65 1 8.218961 6.612275 13.046378 0 0 0
66 1 6.540718 7.486299 15.820097 0 0 0
67 1 6.395744 9.445962 2.579930 0 0 0
68 1 4.805447 10.277235 5.236869 0 0 0
69 1 6.507333 9.389036 7.884141 0 0 0
70 1 4.844938 10.316048 10.607947 0 0 0
71 1 6.612426 9.425149 13.167278 0 0 0
72 1 4.957696 10.230322 15.700465 0 0 0
73 1 12.882422 1.799349 5.220548 0 0 0
74 1 12.938931 1.765148 10.570710 0 0 0
75 1 12.885410 1.795524 0.036444 0 0 0
76 1 11.460092 4.794251 5.298665 0 0 0
77 1 11.495816 4.699637 10.562946 0 0 0
78 1 11.322653 4.671849 15.837209 0 0 0
79 1 11.255232 6.649850 2.497376 0 0 0
80 1 9.726250 7.573600 5.242890 0 0 0
81 1 11.396179 6.634325 8.039584 0 0 0
82 1 9.854856 7.430498 10.481501 0 0 0
83 1 11.470095 6.583587 13.200078 0 0 0
84 1 9.772236 7.572025 0.004754 0 0 0
85 1 9.665454 9.364736 2.612572 0 0 0
86 1 8.240136 10.339674 5.338278 0 0 0
87 1 9.800036 9.340661 7.922487 0 0 0
88 1 8.133744 10.235385 10.577682 0 0 0
89 1 9.793540 9.358548 13.305449 0 0 0
90 1 8.179211 10.281173 15.825325 0 0 0
91 1 12.961015 7.562125 5.350479 0 0 0
92 1 12.972446 7.543674 10.699057 0 0 0
93 1 0.074046 7.546374 15.715993 0 0 0
94 1 11.338111 10.333036 5.263330 0 0 0
95 1 11.249906 10.251585 10.663881 0 0 0
96 1 11.240812 10.394462 15.706169 0 0 0
97 2 1.667721 0.937554 4.537616 0 0 0
98 2 1.642389 0.852502 9.963043 0 0 0
99 2 1.649664 0.837607 15.050015 0 0 0
100 2 12.900221 3.642010 4.606543 0 0 0
101 2 0.086317 3.776450 9.915191 0 0 0
102 2 0.094538 3.659561 15.319861 0 0 0
103 2 4.769593 0.941334 4.514006 0 0 0
104 2 3.263085 1.763573 2.070663 0 0 0
105 2 4.961983 1.031301 10.063186 0 0 0
106 2 3.248925 1.823649 7.141314 0 0 0
107 2 4.873517 0.956769 15.273909 0 0 0
108 2 3.139285 1.911400 12.555016 0 0 0
109 2 3.162148 3.848676 4.655663 0 0 0
110 2 1.608354 4.787051 2.035486 0 0 0
111 2 3.235155 3.826513 9.919152 0 0 0
112 2 1.637843 4.728100 7.225769 0 0 0
113 2 3.179945 3.767787 15.306868 0 0 0
114 2 1.599651 4.600411 12.531882 0 0 0
115 2 1.571851 6.540386 4.732671 0 0 0
116 2 1.598741 6.537911 9.864486 0 0 0
117 2 1.530411 6.508661 15.059681 0 0 0
118 2 12.972162 9.320523 4.562810 0 0 0
119 2 12.970982 9.289472 9.907268 0 0 0
120 2 0.053629 9.317373 15.280881 0 0 0
121 2 8.008385 0.913636 4.469640 0 0 0
122 2 6.422635 1.762786 1.887649 0 0 0
123 2 8.026182 0.885330 9.805700 0 0 0
124 2 6.401330 1.897225 7.394997 0 0 0
125 2 8.233251 0.874778 15.185017 0 0 0
126 2 6.463035 1.880350 12.475156 0 0 0
127 2 6.383144 3.735724 4.523672 0 0 0
128 2 4.748289 4.789863 1.964182 0 0 0
129 2 6.615154 3.809075 9.752618 0 0 0
130 2 4.918205 4.733950 7.313869 0 0 0
131 2 6.508892 3.686674 15.276920 0 0 0
132 2 4.800770 4.658461 12.673539 0 0 0
133 2 4.964061 6.540611 4.569306 0 0 0
134 2 3.275815 7.592388 2.115822 0 0 0
135 2 4.895211 6.524861 10.020720 0 0 0
136 2 3.232687 7.591038 7.119923 0 0 0
137 2 4.879883 6.611262 15.088995 0 0 0
138 2 3.205147 7.429823 12.493219 0 0 0
139 2 3.222684 9.385999 4.484059 0 0 0
140 2 1.637453 10.261935 1.904287 0 0 0
141 2 3.180855 9.297348 10.053362 0 0 0
142 2 1.736960 10.384337 7.340172 0 0 0
143 2 3.163447 9.343698 15.092005 0 0 0
144 2 1.494168 10.271385 12.613010 0 0 0
145 2 11.399296 0.947195 4.607652 0 0 0
146 2 9.687668 1.875400 2.069078 0 0 0
147 2 11.434890 0.954620 9.987287 0 0 0
148 2 9.780680 1.790236 7.269344 0 0 0
149 2 11.327069 0.845741 15.079012 0 0 0
150 2 9.664415 1.913763 12.527921 0 0 0
151 2 9.793410 3.695336 4.471699 0 0 0
152 2 8.127508 4.637874 2.127547 0 0 0
153 2 9.848490 3.725937 9.758164 0 0 0
154 2 8.163622 4.763425 7.417339 0 0 0
155 2 9.627782 3.738874 15.216708 0 0 0
156 2 8.167519 4.736987 12.597164 0 0 0
157 2 8.178041 6.534199 4.652811 0 0 0
158 2 6.395485 7.400573 2.138164 0 0 0
159 2 8.063205 6.583924 10.055263 0 0 0
160 2 6.413671 7.431060 7.217688 0 0 0
161 2 8.231562 6.538024 15.118626 0 0 0
162 2 6.404838 7.476961 12.510015 0 0 0
163 2 6.399382 9.360461 4.497527 0 0 0
164 2 4.901187 10.202647 2.009341 0 0 0
165 2 6.570467 9.315573 9.892373 0 0 0
166 2 4.889496 10.213897 7.266809 0 0 0
167 2 6.532275 9.312423 15.297360 0 0 0
168 2 4.993809 10.390524 12.551530 0 0 0
169 2 12.933085 1.930525 1.902702 0 0 0
170 2 0.118214 1.902063 7.299608 0 0 0
171 2 12.905415 1.782811 12.472145 0 0 0
172 2 11.459832 4.780075 2.049430 0 0 0
173 2 11.425148 4.626736 7.292003 0 0 0
174 2 11.447361 4.665886 12.704437 0 0 0
175 2 11.260168 6.522273 4.630628 0 0 0
176 2 9.628691 7.550874 2.004112 0 0 0
177 2 11.374355 6.636800 10.022463 0 0 0
178 2 9.817963 7.459073 7.252706 0 0 0
179 2 11.432162 6.474798 15.066811 0 0 0
180 2 9.683121 7.505649 12.699525 0 0 0
181 2 9.797567 9.332785 4.560908 0 0 0
182 2 8.210128 10.405262 2.030257 0 0 0
183 2 9.679354 9.282610 10.015967 0 0 0
184 2 8.141018 10.413475 7.128796 0 0 0
185 2 9.764831 9.326823 15.294350 0 0 0
186 2 8.038783 10.299736 12.515878 0 0 0
187 2 0.084438 7.539849 1.893512 0 0 0
188 2 12.943218 7.417673 7.322267 0 0 0
189 2 0.018187 7.425773 12.438078 0 0 0
190 2 11.360455 10.404475 2.002686 0 0 0
191 2 11.245359 10.212210 7.364574 0 0 0
192 2 11.354090 10.286236 12.641531 0 0 0
