LAMMPS DATA file

192 atoms
0 bonds
0 angles
0 dihedrals
0 impropers

2 atom types
0 bond types
0 angle types

0.0 12.990503 xlo xhi
0.0 11.250148 ylo yhi
0.0 15.845291 zlo zhi

Masses

1 69.723
2 14.0067

Atoms

1 1 1.737999 0.933526 2.648065 0 0 0
2 1 1.551326 0.846596 7.777819 0 0 0
3 1 1.706822 0.998597 13.102471 0 0 0
4 1 0.102657 3.791525 2.685143 0 0 0
5 1 0.127407 3.645161 7.893173 0 0 0
6 1 12.987903 3.768800 13.066819 0 0 0
7 1 4.913008 0.836775 2.653452 0 0 0
8 1 3.302706 1.872362 5.313560 0 0 0
9 1 4.797133 0.970280 7.879388 0 0 0
10 1 3.144611 1.847499 10.482927 0 0 0
11 1 4.804278 0.965173 13.206257 0 0 0
12 1 3.225022 1.811499 0.107748 0 0 0
13 1 3.341417 3.701411 2.671991 0 0 0
14 1 1.696430 4.789863 5.409265 0 0 0
15 1 3.217748 3.674186 8.011220 0 0 0
16 1 1.523526 4.610761 10.512400 0 0 0
17 1 3.338040 3.768687 13.226222 0 0 0
18 1 1.734492 4.704474 15.684461 0 0 0
19 1 1.704224 6.587074 2.629051 0 0 0
20 1 1.563667 6.508211 7.911078 0 0 0
21 1 1.553015 6.461073 13.094073 0 0 0
22 1 12.927747 9.307135 2.668822 0 0 0
23 1 0.084103 9.445062 8.012963 0 0 0
24 1 0.054072 9.455975 13.288019 0 0 0
25 1 8.042161 1.048514 2.506567 0 0 0
26 1 6.534353 1.810936 5.195037 0 0 0
27 1 8.077365 0.869524 7.919318 0 0 0
28 1 6.612426 1.851324 10.584813 0 0 0
29 1 8.146734 0.985805 13.167753 0 0 0
30 1 6.588394 1.969676 0.074473 0 0 0
31 1 6.439522 3.816838 2.522253 0 0 0
32 1 4.872608 4.712462 5.340814 0 0 0
33 1 6.464984 3.801538 8.039900 0 0 0
34 1 4.756083 4.606148 10.673071 0 0 0
35 1 6.474986 3.730099 13.344428 0 0 0
36 1 4.936391 4.795826 15.755289 0 0 0
37 1 4.766475 6.536561 2.635547 0 0 0
38 1 3.265813 7.607350 5.273947 0 0 0
39 1 4.845718 6.673925 7.841359 0 0 0
40 1 3.290624 7.604538 10.612225 0 0 0
41 1 4.819217 6.569637 13.040991 0 0 0
42 1 3.347393 7.478536 15.776839 0 0 0
43 1 3.364670 9.366311 2.568046 0 0 0
44 1 1.515862 10.331124 5.166357 0 0 0
45 1 3.136687 9.393199 7.849598 0 0 0
46 1 1.587959 10.363187 10.671645 0 0 0
47 1 3.208135 9.479037 13.342685 0 0 0
48 1 1.547429 10.372974 0.031691 0 0 0
49 1 11.475551 0.960583 2.699404 0 0 0
50 1 9.806141 1.849187 5.197572 0 0 0
51 1 11.246398 0.931242 7.963209 0 0 0
52 1 9.685459 1.879000 10.477381 0 0 0
53 1 11.314079 0.971372 13.323037 0 0 0
54 1 9.836669 1.809811 15.807896 0 0 0
55 1 9.843684 3.695224 2.783384 0 0 0
56 1 8.149982 4.612223 5.379635 0 0 0
57 1 9.783278 3.760475 7.838348 0 0 0
58 1 7.999552 4.627523 10.513984 0 0 0
59 1 9.777562 3.859476 13.106115 0 0 0
60 1 8.185836 4.774450 15.831030 0 0 0
61 1 8.030469 6.632525 2.627941 0 0 0
62 1 6.395614 7.584625 5.319106 0 0 0
63 1 8.014491 6.654463 7.769738 0 0 0
64 1 6.375609 7.610050 10.616978 0 0 0
65 1 8.086978 6.563561 13.282473 0 0 0
66 1 6.378077 7.550987 0.058628 0 0 0
67 1 6.484599 9.393649 2.584367 0 0 0
68 1 4.785831 10.289948 5.409265 0 0 0
69 1 6.424064 9.343811 7.861641 0 0 0
70 1 4.763228 10.315486 10.663564 0 0 0
71 1 6.600345 9.425487 13.161891 0 0 0
72 1 4.818957 10.355761 0.115671 0 0 0
73 1 0.110419 1.780786 5.270777 0 0 0
74 1 12.893984 1.819486 10.679726 0 0 0
75 1 12.911651 1.789786 0.007923 0 0 0
76 1 11.318496 4.661049 5.368701 0 0 0
77 1 11.454766 4.728100 10.531731 0 0 0
78 1 11.403843 4.623248 0.031691 0 0 0
79 1 11.412157 6.585274 2.586744 0 0 0
80 1 9.707673 7.426223 5.369811 0 0 0
81 1 11.364742 6.529924 8.004407 0 0 0
82 1 9.674547 7.577650 10.658335 0 0 0
83 1 11.456585 6.533411 13.161891 0 0 0
84 1 9.836799 7.492036 0.017430 0 0 0
85 1 9.793670 9.478812 2.650125 0 0 0
86 1 8.154529 10.328536 5.411642 0 0 0
87 1 9.837448 9.300835 7.815373 0 0 0
88 1 8.052423 10.369262 10.462645 0 0 0
89 1 9.868366 9.422337 13.096133 0 0 0
90 1 8.212206 10.404812 0.141023 0 0 0
91 1 0.018187 7.514199 5.173804 0 0 0
92 1 0.003897 7.511049 10.452029 0 0 0
93 1 12.988944 7.508011 15.744356 0 0 0
94 1 11.398647 10.206022 5.218805 0 0 0
95 1 11.375264 10.273635 10.590358 0 0 0
96 1 11.330837 10.230547 0.125178 0 0 0
97 2 1.660316 0.973239 4.682600 0 0 0
98 2 1.687336 1.014505 9.914081 0 0 0
99 2 1.533399 0.910654 15.292290 0 0 0
100 2 12.905122 3.711761 4.774820 0 0 0
101 2 0.079580 3.687574 10.067147 0 0 0
102 2 12.877160 3.733249 15.160299 0 0 0
103 2 4.845588 0.850196 4.603057 0 0 0
104 2 3.277114 1.984864 1.897315 0 0 0
105 2 4.833506 0.884914 9.842778 0 0 0
106 2 3.166695 1.767623 7.251914 0 0 0
107 2 4.804797 1.020478 15.199595 0 0 0
108 2 3.355187 1.981714 12.576724 0 0 0
109 2 3.148638 3.845976 4.656614 0 0 0
110 2 1.723450 4.670612 2.020116 0 0 0
111 2 3.136167 3.845638 9.953853 0 0 0
112 2 1.521058 4.732600 7.234960 0 0 0
113 2 3.139805 3.685774 15.111020 0 0 0
114 2 1.552755 4.733275 12.630281 0 0 0
115 2 1.636154 6.574587 4.668340 0 0 0
116 2 1.749951 6.592812 9.940701 0 0 0
117 2 1.730075 6.578524 15.138432 0 0 0
118 2 0.118771 9.361586 4.659149 0 0 0
119 2 0.057228 9.415362 9.817742 0 0 0
120 2 12.881806 9.324348 15.307026 0 0 0
121 2 8.134523 0.929555 4.604958 0 0 0
122 2 6.566440 1.909713 2.036120 0 0 0
123 2 8.030989 0.922298 9.910437 0 0 0
124 2 6.462905 1.870562 7.218005 0 0 0
125 2 8.191032 0.911397 15.257589 0 0 0
126 2 6.490315 1.926588 12.688275 0 0 0
127 2 6.499798 3.840688 4.537774 0 0 0
128 2 4.968348 4.593661 1.975115 0 0 0
129 2 6.371062 3.819425 9.807126 0 0 0
130 2 4.784532 4.615936 7.328605 0 0 0
131 2 6.420946 3.704674 15.275652 0 0 0
132 2 4.871699 4.779738 12.409556 0 0 0
133 2 4.855071 6.578862 4.647582 0 0 0
134 2 3.331804 7.415985 1.922826 0 0 0
135 2 4.742053 6.664138 9.993149 0 0 0
136 2 3.312968 7.418798 7.220224 0 0 0
137 2 4.780895 6.561874 15.288329 0 0 0
138 2 3.282181 7.542437 12.593837 0 0 0
139 2 3.307252 9.456087 4.667230 0 0 0
140 2 1.540804 10.329099 1.879568 0 0 0
141 2 3.353109 9.280022 9.857672 0 0 0
142 2 1.644728 10.307048 7.364733 0 0 0
143 2 3.255680 9.313773 15.256955 0 0 0
144 2 1.532490 10.348224 12.592094 0 0 0
145 2 11.296412 0.866014 4.521295 0 0 0
146 2 9.651814 1.808124 2.130399 0 0 0
147 2 11.240942 1.040447 9.758481 0 0 0
148 2 9.865248 1.829499 7.275841 0 0 0
149 2 11.460871 1.026700 15.092005 0 0 0
150 2 9.784577 1.974289 12.700476 0 0 0
151 2 9.641032 3.677786 4.705101 0 0 0
152 2 8.002020 4.591073 1.982721 0 0 0
153 2 9.833811 3.861838 9.751667 0 0 0
154 2 8.130106 4.768825 7.397532 0 0 0
155 2 9.832642 3.835288 15.268522 0 0 0
156 2 8.019687 4.689624 12.444733 0 0 0
157 2 8.205062 6.658850 4.522246 0 0 0
158 2 6.594889 7.474823 1.948971 0 0 0
159 2 8.059698 6.645350 9.985385 0 0 0
160 2 6.481741 7.547274 7.408783 0 0 0
161 2 8.034366 6.505173 15.235247 0 0 0
162 2 6.575403 7.579562 12.517463 0 0 0
163 2 6.395355 9.280697 4.582775 0 0 0
164 2 4.956916 10.248435 2.078427 0 0 0
165 2 6.535392 9.268547 9.999329 0 0 0
166 2 4.981208 10.310873 7.373764 0 0 0
167 2 6.399512 9.433587 15.325407 0 0 0
168 2 4.957826 10.258448 12.458677 0 0 0
169 2 0.005196 1.851887 1.979552 0 0 0
170 2 0.128606 1.898575 7.408941 0 0 0
171 2 12.988035 1.861112 12.636144 0 0 0
172 2 11.430084 4.674662 1.844550 0 0 0
173 2 11.259649 4.754650 7.317197 0 0 0
174 2 11.245229 4.700424 12.619348 0 0 0
175 2 11.265494 6.498873 4.725541 0 0 0
176 2 9.648956 7.585975 2.120417 0 0 0
177 2 11.240163 6.534986 9.803481 0 0 0
178 2 9.753270 7.410473 7.121824 0 0 0
179 2 11.479188 6.668750 15.146513 0 0 0
180 2 9.780290 7.402935 12.457092 0 0 0
181 2 9.623235 9.368223 4.516066 0 0 0
182 2 8.246761 10.296248 2.130399 0 0 0
183 2 9.801205 9.393311 9.921529 0 0 0
184 2 8.172455 10.201297 7.357444 0 0 0
185 2 9.853816 9.264497 15.293399 0 0 0
186 2 8.188564 10.424500 12.463430 0 0 0
187 2 0.109120 7.532087 1.861029 0 0 0
188 2 12.930227 7.559425 7.364733 0 0 0
189 2 12.887618 7.493274 12.460578 0 0 0
190 2 11.476460 10.272173 2.099501 0 0 0
191 2 11.304336 10.397724 7.169043 0 0 0
192 2 11.433981 10.207259 12.594788 0 0 0
