LAMMPS DATA file

192 atoms
0 bonds
0 angles
0 dihedrals
0 impropers

2 atom types
0 bond types
0 angle types

0.0 12.990503 xlo xhi
0.0 11.250148 ylo yhi
0.0 15.845291 zlo zhi

Masses

1 69.723
2 14.0067

Atoms

1 1 1.740987 0.992207 2.639033 0 0 0
2 1 1.612121 0.894432 7.984759 0 0 0
3 1 1.729815 0.925043 13.285959 0 0 0
4 1 0.017685 3.661248 2.605441 0 0 0
5 1 12.947890 3.695899 7.906325 0 0 0
6 1 0.019694 3.829775 13.049547 0 0 0
7 1 4.932234 0.877084 2.724439 0 0 0
8 1 3.293872 1.799124 5.197097 0 0 0
9 1 4.994978 0.998687 8.027383 0 0 0
10 1 3.213721 1.914775 10.536326 0 0 0
11 1 4.911449 0.977807 13.340784 0 0 0
12 1 3.249315 1.862237 15.711873 0 0 0
13 1 3.234116 3.821338 2.607818 0 0 0
14 1 1.649794 4.594561 5.154948 0 0 0
15 1 3.375322 3.784662 7.960357 0 0 0
16 1 1.719033 4.637199 10.610640 0 0 0
17 1 3.137077 3.649886 13.315273 0 0 0
18 1 1.724619 4.795826 0.120424 0 0 0
19 1 1.527164 6.484923 2.734739 0 0 0
20 1 1.629009 6.628362 7.951484 0 0 0
21 1 1.693182 6.661888 13.250941 0 0 0
22 1 0.061380 9.319173 2.507517 0 0 0
23 1 0.071482 9.421662 7.981114 0 0 0
24 1 12.919678 9.469250 13.188828 0 0 0
25 1 8.135822 0.968289 2.694809 0 0 0
26 1 6.384053 1.983064 5.137360 0 0 0
27 1 8.062296 0.928621 8.017875 0 0 0
28 1 6.411073 1.768411 10.698423 0 0 0
29 1 8.090096 0.854730 13.301963 0 0 0
30 1 6.588264 1.935476 0.117255 0 0 0
31 1 6.546564 3.784100 2.615424 0 0 0
32 1 4.870529 4.681524 5.302626 0 0 0
33 1 6.552800 3.755412 7.854511 0 0 0
34 1 4.846107 4.651374 10.484353 0 0 0
35 1 6.479403 3.660798 13.086309 0 0 0
36 1 4.965100 4.702112 15.713299 0 0 0
37 1 4.905344 6.558386 2.747890 0 0 0
38 1 3.357136 7.460873 5.419723 0 0 0
39 1 4.932104 6.470298 7.873842 0 0 0
40 1 3.228010 7.609375 10.646768 0 0 0
41 1 4.885858 6.592474 13.069196 0 0 0
42 1 3.292053 7.394497 0.012676 0 0 0
43 1 3.375193 9.322323 2.581039 0 0 0
44 1 1.753328 10.349011 5.187273 0 0 0
45 1 3.265423 9.341786 7.772590 0 0 0
46 1 1.728516 10.256085 10.410514 0 0 0
47 1 3.153445 9.318948 13.160940 0 0 0
48 1 1.737610 10.207934 15.801241 0 0 0
49 1 11.283161 0.832848 2.754387 0 0 0
50 1 9.865248 1.893175 5.234809 0 0 0
51 1 11.474122 0.968469 7.907751 0 0 0
52 1 9.844203 1.802836 10.653264 0 0 0
53 1 11.473862 1.002973 13.298002 0 0 0
54 1 9.771327 1.965063 15.690007 0 0 0
55 1 9.673118 3.850026 2.679756 0 0 0
56 1 8.121533 4.714937 5.275373 0 0 0
57 1 9.771846 3.662486 7.833595 0 0 0
58 1 7.993706 4.761063 10.555657 0 0 0
59 1 9.746125 3.688474 13.098351 0 0 0
60 1 8.228704 4.787726 0.012676 0 0 0
61 1 8.151411 6.590899 2.569631 0 0 0
62 1 6.599435 7.392135 5.171111 0 0 0
63 1 8.130106 6.473785 7.771164 0 0 0
64 1 6.449135 7.594750 10.623000 0 0 0
65 1 8.155178 6.469510 13.113562 0 0 0
66 1 6.448746 7.479661 15.715201 0 0 0
67 1 6.551371 9.450237 2.700830 0 0 0
68 1 4.934962 10.365887 5.121673 0 0 0
69 1 6.516946 9.419187 7.760548 0 0 0
70 1 4.877025 10.388499 10.417803 0 0 0
71 1 6.464464 9.379586 13.302914 0 0 0
72 1 4.982118 10.321448 15.830079 0 0 0
73 1 0.002598 1.974401 5.139262 0 0 0
74 1 12.902817 1.936601 10.628229 0 0 0
75 1 0.055859 1.916688 15.796329 0 0 0
76 1 11.245619 4.777150 5.118187 0 0 0
77 1 11.475421 4.652499 10.471360 0 0 0
78 1 11.331746 4.705600 15.821681 0 0 0
79 1 11.386046 6.572449 2.676745 0 0 0
80 1 9.843944 7.509474 5.427329 0 0 0
81 1 11.338761 6.524298 7.918050 0 0 0
82 1 9.813286 7.519712 10.617929 0 0 0
83 1 11.271730 6.671788 13.306400 0 0 0
84 1 9.621936 7.403723 15.708070 0 0 0
85 1 9.696242 9.299035 2.493732 0 0 0
86 1 8.244163 10.356661 5.343032 0 0 0
87 1 9.673898 9.439324 8.011696 0 0 0
88 1 8.033067 10.286011 10.517787 0 0 0
89 1 9.820171 9.343698 13.216715 0 0 0
90 1 8.095162 10.417975 0.057043 0 0 0
91 1 0.066252 7.419810 5.380744 0 0 0
92 1 12.942308 7.509249 10.420180 0 0 0
93 1 12.930227 7.467623 15.698405 0 0 0
94 1 11.352011 10.326624 5.425269 0 0 0
95 1 11.260298 10.203997 10.472786 0 0 0
96 1 11.253413 10.313573 15.755448 0 0 0
97 2 1.749821 0.961280 4.620328 0 0 0
98 2 1.701626 0.908022 9.956864 0 0 0
99 2 1.512744 0.853144 15.088361 0 0 0
100 2 12.938489 3.822575 4.686562 0 0 0
101 2 0.116136 3.802100 9.763234 0 0 0
102 2 0.115630 3.849913 15.060632 0 0 0
103 2 4.777128 0.907302 4.510996 0 0 0
104 2 3.248145 1.923663 2.025662 0 0 0
105 2 4.769723 0.907448 9.781615 0 0 0
106 2 3.329206 1.987339 7.311809 0 0 0
107 2 4.820776 1.017182 15.328893 0 0 0
108 2 3.134868 1.926700 12.645809 0 0 0
109 2 3.138116 3.742812 4.686562 0 0 0
110 2 1.515862 4.787501 1.866258 0 0 0
111 2 3.300757 3.819313 9.915507 0 0 0
112 2 1.639272 4.782438 7.414804 0 0 0
113 2 3.132270 3.703661 15.344104 0 0 0
114 2 1.569253 4.592423 12.505103 0 0 0
115 2 1.579515 6.591687 4.599571 0 0 0
116 2 1.644208 6.557486 9.973184 0 0 0
117 2 1.733583 6.518786 15.202130 0 0 0
118 2 0.045430 9.445962 4.694009 0 0 0
119 2 0.071407 9.455975 9.837707 0 0 0
120 2 12.907924 9.341223 15.325407 0 0 0
121 2 8.087887 0.939826 4.599888 0 0 0
122 2 6.440172 1.925575 2.059729 0 0 0
123 2 8.111140 0.906211 10.016600 0 0 0
124 2 6.407306 1.846374 7.305154 0 0 0
125 2 8.039433 0.928227 15.268047 0 0 0
126 2 6.573844 1.917363 12.502568 0 0 0
127 2 6.504215 3.705236 4.778306 0 0 0
128 2 4.856500 4.638886 2.041983 0 0 0
129 2 6.487847 3.806825 9.842302 0 0 0
130 2 4.938859 4.732937 7.296122 0 0 0
131 2 6.440821 3.657198 15.103097 0 0 0
132 2 4.967179 4.620548 12.401950 0 0 0
133 2 4.957696 6.476935 4.707160 0 0 0
134 2 3.306343 7.486636 1.943742 0 0 0
135 2 4.794535 6.637250 9.927075 0 0 0
136 2 3.357006 7.557512 7.365683 0 0 0
137 2 4.901707 6.602712 15.344896 0 0 0
138 2 3.121488 7.439498 12.496071 0 0 0
139 2 3.182024 9.367548 4.522880 0 0 0
140 2 1.739948 10.281623 1.854850 0 0 0
141 2 3.369087 9.320635 9.765928 0 0 0
142 2 1.519109 10.299511 7.303887 0 0 0
143 2 3.158381 9.364848 15.207359 0 0 0
144 2 1.716435 10.253835 12.505737 0 0 0
145 2 11.353830 1.025102 4.557581 0 0 0
146 2 9.696112 1.923888 2.009183 0 0 0
147 2 11.446062 0.952876 10.022305 0 0 0
148 2 9.735083 1.938513 7.424628 0 0 0
149 2 11.379161 0.927541 15.304966 0 0 0
150 2 9.804323 1.844687 12.688750 0 0 0
151 2 9.789513 3.651573 4.759767 0 0 0
152 2 8.037094 4.680512 1.942633 0 0 0
153 2 9.737811 3.642798 9.803481 0 0 0
154 2 8.191422 4.692324 7.331933 0 0 0
155 2 9.792631 3.814700 15.144136 0 0 0
156 2 8.043720 4.725175 12.598432 0 0 0
157 2 8.234160 6.586624 4.640769 0 0 0
158 2 6.521233 7.453111 1.977809 0 0 0
159 2 8.147644 6.620937 9.861475 0 0 0
160 2 6.609178 7.419698 7.220857 0 0 0
161 2 8.132964 6.663688 15.247289 0 0 0
162 2 6.422375 7.535012 12.606830 0 0 0
163 2 6.383273 9.287110 4.628251 0 0 0
164 2 4.898459 10.216485 2.024870 0 0 0
165 2 6.440432 9.271360 9.888095 0 0 0
166 2 4.784532 10.247648 7.323376 0 0 0
167 2 6.536432 9.384086 15.187711 0 0 0
168 2 4.746600 10.398512 12.493061 0 0 0
169 2 0.038972 1.944813 2.119783 0 0 0
170 2 0.077943 1.847612 7.365842 0 0 0
171 2 12.870731 1.808574 12.607147 0 0 0
172 2 11.397997 4.769163 1.972422 0 0 0
173 2 11.471134 4.605136 7.174272 0 0 0
174 2 11.467367 4.648674 12.454081 0 0 0
175 2 11.306804 6.571887 4.491823 0 0 0
176 2 9.794060 7.531412 2.038972 0 0 0
177 2 11.393581 6.533411 9.919310 0 0 0
178 2 9.693903 7.429935 7.381846 0 0 0
179 2 11.354219 6.576049 15.250300 0 0 0
180 2 9.817573 7.567525 12.687166 0 0 0
181 2 9.795099 9.425599 4.530169 0 0 0
182 2 8.219481 10.305698 2.115188 0 0 0
183 2 9.753660 9.296222 10.025315 0 0 0
184 2 8.183368 10.373424 7.185681 0 0 0
185 2 9.648436 9.439887 15.313364 0 0 0
186 2 8.081002 10.321223 12.518572 0 0 0
187 2 12.886060 7.565725 1.906347 0 0 0
188 2 12.980630 7.451873 7.141314 0 0 0
189 2 0.022084 7.388872 12.466441 0 0 0
190 2 11.494907 10.368249 1.855959 0 0 0
191 2 11.254712 10.378599 7.110891 0 0 0
192 2 11.292644 10.261710 12.614119 0 0 0
