LAMMPS DATA file generated by GEO Finder

65 atoms

2 atom types

0.0 6.0 xlo xhi
0.0 6.0 ylo yhi
0.0 6.0 zlo zhi

Masses

1 106.42
2 1.0

Atoms

1 2 0.750000 0.750000 0.750000
2 1 0.000000 0.000000 0.000000
3 1 0.000000 0.000000 1.500000
4 1 0.000000 0.000000 3.000000
5 1 0.000000 0.000000 4.500000
6 1 0.000000 1.500000 0.000000
7 1 0.000000 1.500000 1.500000
8 1 0.000000 1.500000 3.000000
9 1 0.000000 1.500000 4.500000
10 1 0.000000 3.000000 0.000000
11 1 0.000000 3.000000 1.500000
12 1 0.000000 3.000000 3.000000
13 1 0.000000 3.000000 4.500000
14 1 0.000000 4.500000 0.000000
15 1 0.000000 4.500000 1.500000
16 1 0.000000 4.500000 3.000000
17 1 0.000000 4.500000 4.500000
18 1 1.500000 0.000000 0.000000
19 1 1.500000 0.000000 1.500000
20 1 1.500000 0.000000 3.000000
21 1 1.500000 0.000000 4.500000
22 1 1.500000 1.500000 0.000000
23 1 1.500000 1.500000 1.500000
24 1 1.500000 1.500000 3.000000
25 1 1.500000 1.500000 4.500000
26 1 1.500000 3.000000 0.000000
27 1 1.500000 3.000000 1.500000
28 1 1.500000 3.000000 3.000000
29 1 1.500000 3.000000 4.500000
30 1 1.500000 4.500000 0.000000
31 1 1.500000 4.500000 1.500000
32 1 1.500000 4.500000 3.000000
33 1 1.500000 4.500000 4.500000
34 1 3.000000 0.000000 0.000000
35 1 3.000000 0.000000 1.500000
36 1 3.000000 0.000000 3.000000
37 1 3.000000 0.000000 4.500000
38 1 3.000000 1.500000 0.000000
39 1 3.000000 1.500000 1.500000
40 1 3.000000 1.500000 3.000000
41 1 3.000000 1.500000 4.500000
42 1 3.000000 3.000000 0.000000
43 1 3.000000 3.000000 1.500000
44 1 3.000000 3.000000 3.000000
45 1 3.000000 3.000000 4.500000
46 1 3.000000 4.500000 0.000000
47 1 3.000000 4.500000 1.500000
48 1 3.000000 4.500000 3.000000
49 1 3.000000 4.500000 4.500000
50 1 4.500000 0.000000 0.000000
51 1 4.500000 0.000000 1.500000
52 1 4.500000 0.000000 3.000000
53 1 4.500000 0.000000 4.500000
54 1 4.500000 1.500000 0.000000
55 1 4.500000 1.500000 1.500000
56 1 4.500000 1.500000 3.000000
57 1 4.500000 1.500000 4.500000
58 1 4.500000 3.000000 0.000000
59 1 4.500000 3.000000 1.500000
60 1 4.500000 3.000000 3.000000
61 1 4.500000 3.000000 4.500000
62 1 4.500000 4.500000 0.000000
63 1 4.500000 4.500000 1.500000
64 1 4.500000 4.500000 3.000000
65 1 4.500000 4.500000 4.500000
