ITEM: TIMESTEP
0
ITEM: NUMBER OF ATOMS
65
ITEM: BOX BOUNDS pp pp pp
0.0000000000000000e+00 6.0000000000000000e+00
0.0000000000000000e+00 6.0000000000000000e+00
0.0000000000000000e+00 6.0000000000000000e+00
ITEM: ATOMS id type fx fy fz
1 1 0.00197727 0.00197727 0.00197727
2 1 0.00197727 0.00197727 -0.00197727
3 1 0 0 0
4 1 0 0 0
5 1 0.00197727 -0.00197727 0.00197727
6 1 0.00197727 -0.00197727 -0.00197727
7 1 0 0 0
8 1 0 0 0
9 1 0 0 0
10 1 0 0 0
11 1 0 0 0
12 1 0 0 0
13 1 0 0 0
14 1 0 0 0
15 1 0 0 0
16 1 0 0 0
17 1 -0.00197727 0.00197727 0.00197727
18 1 -0.00197727 0.00197727 -0.00197727
19 1 0 0 0
20 1 0 0 0
21 1 -0.00197727 -0.00197727 0.00197727
22 1 -0.00197727 -0.00197727 -0.00197727
23 1 0 0 0
24 1 0 0 0
25 1 0 0 0
26 1 0 0 0
27 1 0 0 0
28 1 0 0 0
29 1 0 0 0
30 1 0 0 0
31 1 0 0 0
32 1 0 0 0
33 1 0 0 0
34 1 0 0 0
35 1 0 0 0
36 1 0 0 0
37 1 0 0 0
38 1 0 0 0
39 1 0 0 0
40 1 0 0 0
41 1 0 0 0
42 1 0 0 0
43 1 0 0 0
44 1 0 0 0
45 1 0 0 0
46 1 0 0 0
47 1 0 0 0
48 1 0 0 0
49 1 0 0 0
50 1 0 0 0
51 1 0 0 0
52 1 0 0 0
53 1 0 0 0
54 1 0 0 0
55 1 0 0 0
56 1 0 0 0
57 1 0 0 0
58 1 0 0 0
59 1 0 0 0
60 1 0 0 0
61 1 0 0 0
62 1 0 0 0
63 1 0 0 0
64 1 0 0 0
65 2 0 0 0
ITEM: TIMESTEP
1000
ITEM: NUMBER OF ATOMS
65
ITEM: BOX BOUNDS pp pp pp
0.0000000000000000e+00 6.0000000000000000e+00
0.0000000000000000e+00 6.0000000000000000e+00
0.0000000000000000e+00 6.0000000000000000e+00
ITEM: ATOMS id type fx fy fz
1 1 -9.3542 7.00981 -22.9643
2 1 0.0297607 -42.6574 40.0806
3 1 16.48 37.2177 -13.5073
4 1 12.3943 38.7487 -1.41312
5 1 42.7183 18.955 9.76229
6 1 -11.4148 26.3436 -2.60451
7 1 -23.7036 -33.7955 -5.52583
8 1 6.08035 -13.1875 -2.94867
9 1 36.6558 -42.1754 11.3814
10 1 18.21 -25.4593 -7.0894
11 1 -5.15069 22.4402 -5.51477
12 1 -11.0825 9.94881 2.40904
13 1 24.4878 14.5593 -11.9947
14 1 3.84069 43.1235 10.5556
15 1 -15.478 -26.7201 15.8074
16 1 20.9099 -32.9838 -14.4629
17 1 0.424796 21.4674 -10.4492
18 1 -0.608225 34.7866 14.5404
19 1 -24.7874 8.92615 -25.5492
20 1 3.29278 22.9331 19.3251
21 1 -46.8777 -17.1651 3.41045
22 1 7.63501 -29.7199 11.5913
23 1 20.3429 -22.3969 -9.85292
24 1 -9.62928 -29.4479 -4.77538
25 1 -32.1312 -28.1994 22.6515
26 1 -3.3112 16.1662 -10.4773
27 1 -7.6731 28.1431 3.76987
28 1 -12.2568 14.1185 -16.3063
29 1 -8.35791 24.7324 11.7219
30 1 -1.0106 -20.9099 -5.25384
31 1 19.914 -14.7909 1.4538
32 1 0.385514 -8.95603 -9.25659
33 1 -9.15141 -17.1557 -2.6261
34 1 18.5604 -13.4874 -9.91589
35 1 10.3743 -19.8991 28.4807
36 1 -15.093 13.9831 -14.7411
37 1 12.657 3.28869 -24.1658
38 1 1.37962 -0.775365 19.9236
39 1 -31.3223 21.9453 -3.73646
40 1 -10.8529 6.24069 8.28314
41 1 2.551 -25.0126 16.2915
42 1 -12.1127 0.0869714 2.38286
43 1 19.5389 -8.35859 2.50112
44 1 10.6582 8.85733 -21.4427
45 1 1.46891 37.8844 -11.6807
46 1 0.564266 17.4807 8.08292
47 1 -17.7357 5.07694 -19.0182
48 1 -27.4067 -27.847 23.5051
49 1 18.0366 -0.230484 10.9238
50 1 -18.1813 -1.19507 -3.56264
51 1 -2.36497 9.39484 -2.26448
52 1 -0.964611 -35.8664 -5.61352
53 1 -12.1259 6.20459 -7.06769
54 1 1.98828 -25.4783 -4.8072
55 1 35.1793 -20.422 6.71312
56 1 16.6401 34.3713 5.28118
57 1 -5.7698 -1.82456 1.41953
58 1 -2.95496 31.8508 -1.49273
59 1 -6.68856 14.8648 -10.5423
60 1 13.2807 -16.3509 10.7199
61 1 -16.8224 -2.47678 -0.376409
62 1 -2.59909 -9.87282 -13.0476
63 1 12.4588 -3.87956 1.12589
64 1 5.83501 17.5473 11.9527
65 2 0.000127405 -4.35109e-05 2.52926e-06
ITEM: TIMESTEP
2000
ITEM: NUMBER OF ATOMS
65
ITEM: BOX BOUNDS pp pp pp
0.0000000000000000e+00 6.0000000000000000e+00
0.0000000000000000e+00 6.0000000000000000e+00
0.0000000000000000e+00 6.0000000000000000e+00
ITEM: ATOMS id type fx fy fz
1 1 18.0911 40.6597 23.7737
2 1 1.89821 2.20448 -8.06498
3 1 9.59139 -20.9712 14.222
4 1 12.9107 34.9512 -27.9435
5 1 4.38825 -15.2902 2.39107
6 1 -3.30758 -27.9552 4.14778
7 1 16.1402 2.61032 -11.8567
8 1 12.8543 -1.99571 5.4216
9 1 -19.7754 -28.6067 7.97351
10 1 20.9866 21.9499 -6.36265
11 1 -13.8514 -26.1342 2.81708
12 1 33.6608 3.15195 -4.93737
13 1 -2.37631 8.85648 -12.8577
14 1 12.4738 -1.0201 7.59082
15 1 11.743 48.4249 -5.16032
16 1 14.494 -40.1674 9.53583
17 1 -17.5342 33.8294 -17.2938
18 1 6.96457 27.6447 -4.26402
19 1 -18.533 -5.62188 -9.31718
20 1 -12.2128 -21.9923 30.3253
21 1 0.126569 -32.5875 0.917228
22 1 6.56067 -16.8058 -12.6366
23 1 1.57029 -4.88024 27.0487
24 1 -6.10675 5.39164 -18.4857
25 1 13.6258 10.9907 -0.394853
26 1 -11.5915 34.9608 7.07001
27 1 -15.9464 9.02146 1.72065
28 1 -30.1808 -10.7311 -8.84053
29 1 7.90373 -13.6975 -1.80109
30 1 -7.54309 -45.4201 5.81987
31 1 16.9836 0.172211 -18.7126
32 1 -9.93377 29.9798 17.4856
33 1 10.9062 11.5367 3.20754
34 1 -26.6022 5.63131 -5.67648
35 1 19.4755 9.20522 2.16541
36 1 0.908814 -4.81757 1.41232
37 1 -7.44835 -12.8875 -4.85779
38 1 13.7096 -9.04443 6.27559
39 1 -18.2796 -1.99914 7.27873
40 1 -36.7956 5.39471 -6.72487
41 1 -22.0237 20.9521 2.94051
42 1 -25.012 -5.53356 9.85269
43 1 34.5277 3.68512 4.46801
44 1 1.89436 4.20119 -15.5224
45 1 -10.5494 -20.2277 23.4692
46 1 -15.8607 10.4204 -15.7469
47 1 -18.051 -10.4304 0.669854
48 1 -9.96518 -4.92295 -12.3056
49 1 -9.84584 18.8121 17.1526
50 1 16.3802 13.4485 2.14449
51 1 -10.9286 -26.5143 1.53573
52 1 -1.64567 -23.9837 -21.6713
53 1 2.13518 -6.74749 10.3687
54 1 -16.1347 -20.8602 -5.77116
55 1 1.45824 -0.690948 -5.84619
56 1 29.2944 30.9172 0.936506
57 1 27.3406 -19.3685 -9.31495
58 1 16.2367 24.1967 7.08578
59 1 -3.96343 10.2226 -2.80801
60 1 -5.6646 -18.5084 5.40634
61 1 6.16838 5.46401 -3.64321
62 1 9.34685 -16.5486 -1.20696
63 1 -10.5055 16.1934 -11.7119
64 1 5.41896 11.8795 17.1069
65 2 1.9451e-05 0.00220332 -0.000419074
ITEM: TIMESTEP
3000
ITEM: NUMBER OF ATOMS
65
ITEM: BOX BOUNDS pp pp pp
0.0000000000000000e+00 6.0000000000000000e+00
0.0000000000000000e+00 6.0000000000000000e+00
0.0000000000000000e+00 6.0000000000000000e+00
ITEM: ATOMS id type fx fy fz
1 1 17.612 4.9466 -16.3987
2 1 13.6447 36.0047 22.1117
3 1 -12.247 0.551085 -29.6693
4 1 -12.8168 -22.4163 22.7623
5 1 -18.754 -2.27247 -6.74744
6 1 -6.89614 -19.0534 7.71717
7 1 30.8399 -11.3256 -2.63484
8 1 15.0133 25.8041 1.74859
9 1 -9.06571 -21.5416 -14.0354
10 1 19.6735 14.0156 10.7345
11 1 -1.98762 -4.12894 -3.84565
12 1 20.6915 -23.123 7.13064
13 1 -9.60795 18.8842 22.6452
14 1 8.0463 -31.5008 -24.578
15 1 16.8519 13.2885 7.44688
16 1 -2.86758 20.3707 -5.11565
17 1 16.6335 0.0235992 9.53016
18 1 -15.0463 -7.4336 -31.2595
19 1 23.9957 -29.3263 27.2019
20 1 6.37774 -23.0447 -5.32454
21 1 13.2398 9.52692 -21.9905
22 1 11.3107 9.04297 -8.93682
23 1 -22.0726 23.0635 1.36803
24 1 2.01005 32.6664 29.7626
25 1 -9.86973 0.503074 0.918099
26 1 -16.7224 4.90145 10.9231
27 1 12.5549 -5.09119 -32.4455
28 1 1.06671 -42.5132 21.0841
29 1 7.47629 -7.7017 7.02804
30 1 -12.4704 -7.84708 -22.7752
31 1 -12.4489 14.1735 8.016
32 1 -12.9479 31.3884 7.04095
33 1 -32.0471 7.32444 -13.5836
34 1 -22.5884 5.54274 18.0793
35 1 -31.3337 20.8866 -14.1673
36 1 -5.40635 -1.94386 10.3106
37 1 -11.3338 -16.552 18.7099
38 1 -6.07673 2.55694 -2.09505
39 1 1.38491 -10.756 -0.919927
40 1 15.2103 -6.27465 -16.6821
41 1 19.108 3.16944 -11.664
42 1 -33.036 1.00913 13.9295
43 1 -22.3245 8.13332 -3.30589
44 1 -16.0124 6.94485 0.432074
45 1 -16.4127 5.5638 23.6383
46 1 10.9323 -8.24935 -8.02485
47 1 8.07462 -20.1139 -2.42097
48 1 -20.9826 2.43037 -12.8861
49 1 -1.94556 14.1839 2.33852
50 1 24.5859 1.56323 0.315083
51 1 19.2735 -22.4371 -1.45737
52 1 12.7635 -2.45407 -0.871489
53 1 17.0031 -18.3409 -9.54517
54 1 0.959221 -7.82319 17.6803
55 1 -9.75786 16.9064 -15.9509
56 1 -31.7699 9.46 9.10988
57 1 -0.315139 2.94398 -14.8789
58 1 29.4095 12.175 22.8466
59 1 11.5 -7.30749 -2.11657
60 1 -6.32086 -19.9428 -6.47358
61 1 16.218 1.39864 11.7957
62 1 -3.78633 -5.61904 -6.35435
63 1 -11.7773 13.3193 -1.83067
64 1 35.5877 11.4607 -3.36242
65 2 -0.00085849 0.00642094 -0.00736083
ITEM: TIMESTEP
4000
ITEM: NUMBER OF ATOMS
65
ITEM: BOX BOUNDS pp pp pp
0.0000000000000000e+00 6.0000000000000000e+00
0.0000000000000000e+00 6.0000000000000000e+00
0.0000000000000000e+00 6.0000000000000000e+00
ITEM: ATOMS id type fx fy fz
1 1 11.1603 0.77099 9.48692
2 1 6.90424 5.73922 3.09156
3 1 -10.669 39.4765 -6.35067
4 1 11.0733 -28.9622 -6.42199
5 1 10.3017 14.4185 -0.762626
6 1 25.0576 -6.13314 -29.0283
7 1 -20.0582 -15.4002 24.9016
8 1 21.1296 26.8552 5.72905
9 1 41.376 -14.3494 7.89285
10 1 -8.14531 11.9837 -22.7724
11 1 26.2498 -8.95101 12.931
12 1 -2.62783 -14.1176 1.24322
13 1 -8.65235 -0.0976076 -9.18998
14 1 -11.4059 -10.664 27.1745
15 1 -22.1669 -15.4049 -33.2833
16 1 0.121205 15.7833 14.5925
17 1 21.2108 9.57426 -2.87236
18 1 -1.62332 -29.0989 2.3102
19 1 15.1413 24.1819 -18.7941
20 1 -17.8167 27.2207 18.9916
21 1 -18.4047 3.48336 -33.2836
22 1 -19.5521 29.6043 5.10758
23 1 27.0706 -9.44739 -5.5026
24 1 -6.21161 -32.0468 34.3349
25 1 -39.7688 9.09921 26.7024
26 1 -9.6624 -27.6985 -20.5064
27 1 -1.33298 11.779 -2.95245
28 1 13.0033 13.1614 -3.97855
29 1 5.31406 -24.4083 -2.37883
30 1 -4.22685 25.9535 -11.1815
31 1 14.6652 -25.4537 -0.862271
32 1 -24.5596 -6.92237 14.9269
33 1 -17.4579 -18.2582 -6.43674
34 1 24.0503 -5.12634 -6.2888
35 1 -23.4104 -16.0353 7.10439
36 1 11.2277 -3.46981 5.48755
37 1 23.2429 7.46616 23.6402
38 1 6.97557 -10.801 -15.7627
39 1 -17.2165 2.12835 15.6197
40 1 -13.7552 -1.45316 -23.4327
41 1 14.9753 -8.31011 6.46007
42 1 -14.2381 29.0197 7.79924
43 1 -12.9033 1.33688 2.48595
44 1 -20.3525 6.14716 -16.3589
45 1 -3.46206 22.2455 -19.6951
46 1 -6.92765 -15.1221 6.948
47 1 -1.88472 12.4177 -17.7783
48 1 40.7086 -1.52995 30.9936
49 1 -15.3129 1.75554 -6.84776
50 1 -29.4989 15.565 16.8302
51 1 19.7613 -13.6801 3.74044
52 1 -4.28104 -4.09545 -13.6263
53 1 -15.1927 -7.79475 8.60088
54 1 -11.2624 21.2078 4.40086
55 1 9.85269 7.33205 -16.0186
56 1 -1.46836 12.8783 2.16478
57 1 -15.8893 13.5922 16.9888
58 1 29.4098 -25.5834 -17.8948
59 1 -10.4107 15.972 13.5569
60 1 9.05717 -16.1724 -11.5231
61 1 7.75043 -8.30752 6.43835
62 1 22.0084 -11.2879 -1.10865
63 1 9.63527 -9.16104 9.3162
64 1 -16.6259 7.18696 -15.0884
65 2 0.00041557 0.00801365 -0.0100141
ITEM: TIMESTEP
5000
ITEM: NUMBER OF ATOMS
65
ITEM: BOX BOUNDS pp pp pp
0.0000000000000000e+00 6.0000000000000000e+00
0.0000000000000000e+00 6.0000000000000000e+00
0.0000000000000000e+00 6.0000000000000000e+00
ITEM: ATOMS id type fx fy fz
1 1 -12.8775 6.13806 24.8717
2 1 -25.1195 -12.563 -20.2229
3 1 27.073 1.32576 35.0028
4 1 4.24222 -11.3972 -39.1621
5 1 -11.5048 -4.6441 13.2236
6 1 6.5502 -18.7741 -12.0623
7 1 0.7158 15.1875 11.4231
8 1 -10.3599 4.63336 -13.4112
9 1 17.615 22.694 -20.8566
10 1 -6.79377 -0.772133 17.4395
11 1 27.1663 -18.9982 2.57446
12 1 26.9451 19.5193 1.31234
13 1 -5.04114 -23.9103 23.3668
14 1 -0.324836 32.1285 -18.4149
15 1 3.10523 3.61876 19.2147
16 1 -2.81224 -12.7242 -25.3678
17 1 11.7004 -13.1144 6.40032
18 1 16.0629 -4.58776 -16.9324
19 1 -15.451 -12.9802 5.41135
20 1 -14.4076 34.3122 5.03278
21 1 7.26181 7.70746 -3.40911
22 1 -19.0822 -6.0849 -12.2496
23 1 4.91589 14.6453 17.4925
24 1 2.53437 -27.6893 -1.96422
25 1 2.08313 -6.9737 5.11527
26 1 -2.29077 14.5516 -24.3331
27 1 -7.78194 -19.0004 -16.1952
28 1 -2.98332 35.4951 36.587
29 1 22.8855 12.9063 1.51367
30 1 -1.92817 -4.01569 7.06935
31 1 -16.9956 16.3962 -16.1213
32 1 -22.5925 -42.5587 7.38913
33 1 -5.70664 16.6558 7.52499
34 1 28.502 -3.08205 -13.8236
35 1 27.1169 -1.4574 4.3979
36 1 32.0393 7.43702 0.400364
37 1 6.37093 -0.474806 -6.40282
38 1 5.32917 -13.0386 -11.0438
39 1 -6.6536 23.4938 -8.24045
40 1 2.32678 1.72758 26.1524
41 1 -18.0007 19.9418 18.1773
42 1 17.0038 1.49665 -4.79355
43 1 -6.22221 -17.1435 -3.55388
44 1 -6.5899 -10.3768 -10.3018
45 1 8.9992 -36.708 -13.6136
46 1 18.3622 16.0418 -10.4456
47 1 9.72793 -4.77832 23.0445
48 1 22.9648 2.19488 -0.22972
49 1 6.28395 -10.6273 -28.4003
50 1 -18.998 -39.5975 10.6874
51 1 -38.4479 1.84694 21.3336
52 1 -23.3991 22.8309 -2.24572
53 1 -2.18788 12.8781 2.85221
54 1 7.21837 39.6919 2.97322
55 1 2.41938 15.9192 -7.60825
56 1 6.66223 -24.7169 1.94262
57 1 -5.09262 -3.01951 -0.0574468
58 1 -7.09033 -15.4514 7.45914
59 1 -14.7811 -14.6826 -16.3033
60 1 -16.0128 21.0806 9.48749
61 1 -22.9332 1.83546 -14.365
62 1 -17.0306 12.6662 27.9331
63 1 5.0383 -1.45396 -20.7304
64 1 0.271394 -21.6109 8.06234
65 2 -1.65259e-05 0.00960387 -0.00674782
ITEM: TIMESTEP
6000
ITEM: NUMBER OF ATOMS
65
ITEM: BOX BOUNDS pp pp pp
0.0000000000000000e+00 6.0000000000000000e+00
0.0000000000000000e+00 6.0000000000000000e+00
0.0000000000000000e+00 6.0000000000000000e+00
ITEM: ATOMS id type fx fy fz
1 1 -20.632 -14.7386 2.72056
2 1 -26.5071 22.4557 21.6548
3 1 -19.8885 -39.3618 -6.49532
4 1 -23.8914 -18.4425 -18.2663
5 1 -26.1101 25.3931 -21.139
6 1 -7.12341 -7.99002 -4.26909
7 1 -23.042 25.4267 -6.16059
8 1 -23.4214 -14.2314 31.23
9 1 6.84816 -5.83546 6.88871
10 1 4.02414 -3.3074 5.68052
11 1 -42.0727 -15.5464 -12.0995
12 1 2.88092 29.9353 -0.399669
13 1 -13.6634 -5.46899 -40.9469
14 1 -20.7771 -9.44047 32.6485
15 1 19.306 25.7769 -18.7024
16 1 -24.0082 4.59507 27.0839
17 1 27.8699 -19.7328 0.059877
18 1 20.2383 22.1387 -14.1889
19 1 15.0229 1.52773 12.5287
20 1 23.3167 -2.80883 1.47873
21 1 15.1601 14.8094 28.2956
22 1 5.76697 -52.4968 3.06105
23 1 27.8902 21.6942 6.72184
24 1 10.854 10.0109 -37.7796
25 1 12.3896 -8.96993 -28.9071
26 1 -24.7116 35.508 27.7125
27 1 45.946 -26.2361 -25.0167
28 1 14.6312 -0.0893671 24.9757
29 1 8.25693 13.2213 -3.31088
30 1 22.1407 -4.96689 2.31343
31 1 -27.4127 1.89884 -12.1544
32 1 14.2456 -6.24418 13.3227
33 1 -3.57051 3.9324 4.84033
34 1 2.98526 3.18861 0.395783
35 1 -15.5209 24.0219 -15.2093
36 1 -7.05798 8.07044 10.4363
37 1 -11.1955 3.7171 -20.6246
38 1 11.602 20.0864 -1.03844
39 1 -8.73777 3.30427 -8.36686
40 1 8.69207 -3.3501 26.2184
41 1 -21.9566 -4.11306 11.2639
42 1 19.2966 -28.1329 12.3054
43 1 -31.9169 -4.85553 -2.60258
44 1 7.79599 -5.11795 -17.6085
45 1 12.1072 -1.03834 -32.6024
46 1 -7.15132 4.99811 -4.70371
47 1 9.6314 -21.5521 4.67434
48 1 -5.32079 -0.742583 32.0356
49 1 -2.67462 -6.43139 -12.0459
50 1 1.2036 -22.8718 0.387601
51 1 21.0939 -7.45082 8.81069
52 1 6.61037 0.340601 3.47781
53 1 22.2379 3.40653 -3.66839
54 1 -9.32087 -9.99803 1.46435
55 1 3.32815 16.492 0.061371
56 1 4.00987 7.7791 3.59234
57 1 2.64129 13.8913 11.0589
58 1 1.05798 16.3112 -7.34881
59 1 28.9849 -8.58589 -12.8956
60 1 -25.702 18.8974 9.57065
61 1 -9.37746 -14.1739 9.13788
62 1 6.16799 16.8159 -13.7691
63 1 -2.22386 1.4008 17.998
64 1 18.7547 -26.735 -13.7761
65 2 -0.000998415 0.0118094 -0.00991599
ITEM: TIMESTEP
7000
ITEM: NUMBER OF ATOMS
65
ITEM: BOX BOUNDS pp pp pp
0.0000000000000000e+00 6.0000000000000000e+00
0.0000000000000000e+00 6.0000000000000000e+00
0.0000000000000000e+00 6.0000000000000000e+00
ITEM: ATOMS id type fx fy fz
1 1 22.3802 -8.79051 13.8816
2 1 7.72789 -0.0863997 11.6815
3 1 18.8137 39.76 19.5718
4 1 -9.1846 -18.835 -44.4469
5 1 -5.37127 4.60248 -6.85098
6 1 0.830954 0.639626 -7.87336
7 1 1.82384 -21.6865 -10.1019
8 1 -1.46596 27.1893 25.3356
9 1 -0.557939 17.8235 8.0413
10 1 -27.6913 10.2039 -22.8724
11 1 -9.90763 17.645 22.6655
12 1 -5.70731 -25.2974 -8.93972
13 1 14.2668 -13.9355 27.84
14 1 -9.73157 -9.37705 -23.4654
15 1 -21.4456 -33.5332 28.2997
16 1 1.91064 14.0591 -32.7195
17 1 -23.0479 16.3524 -10.6014
18 1 -16.838 13.7015 17.4065
19 1 -29.4779 -22.1702 -15.3613
20 1 3.53489 -20.3734 7.91171
21 1 -7.90638 -1.44543 -18.6671
22 1 4.38667 -13.8018 15.1338
23 1 -2.69553 11.6763 -15.4037
24 1 -2.30114 16.5226 18.659
25 1 -7.41346 -2.62141 12.2192
26 1 27.1416 -1.84743 -11.0645
27 1 -1.58863 2.95806 8.78858
28 1 2.36539 -25.3493 -9.98203
29 1 -13.2439 -12.4502 22.9287
30 1 28.307 0.873406 -11.9545
31 1 12.1275 7.28979 9.874
32 1 -17.2766 29.8033 -21.0922
33 1 50.489 -40.6344 12.6794
34 1 0.301096 -3.21203 -13.4039
35 1 19.2242 14.6083 13.1649
36 1 25.4539 -11.1966 -12.9432
37 1 12.1792 -1.64936 13.2252
38 1 4.64362 -0.0548287 -14.4936
39 1 11.2429 -10.9263 -3.87144
40 1 25.0352 1.25361 5.66745
41 1 18.742 8.7678 -12.6162
42 1 -2.194 -5.05055 17.1405
43 1 41.016 -2.21595 -17.3219
44 1 -3.3257 6.58578 11.9871
45 1 30.628 31.1616 -7.04137
46 1 -3.15224 13.4567 -21.4279
47 1 -10.4377 -0.80141 24.3804
48 1 17.7401 1.4042 7.43336
49 1 -49.0461 11.4075 -17.5831
50 1 7.33311 14.9149 15.6225
51 1 -5.85765 11.9182 -0.451284
52 1 -22.3806 -16.2465 1.99123
53 1 2.02102 -21.5111 10.554
54 1 -10.3114 -18.3188 -1.5999
55 1 -11.003 -4.65526 11.6643
56 1 -22.8374 25.54 -21.7883
57 1 -10.3065 19.5706 5.64556
58 1 2.28401 22.2954 -0.373774
59 1 -30.2764 1.66566 27.9454
60 1 8.25981 -22.2368 -29.8233
61 1 -32.7704 -8.3837 3.53035
62 1 -14.4737 -22.8562 -15.3494
63 1 20.1145 -11.4261 -5.47545
64 1 -1.10305 17.3287 14.0918
65 2 0.00363556 -0.00248195 -0.00110876
ITEM: TIMESTEP
8000
ITEM: NUMBER OF ATOMS
65
ITEM: BOX BOUNDS pp pp pp
0.0000000000000000e+00 6.0000000000000000e+00
0.0000000000000000e+00 6.0000000000000000e+00
0.0000000000000000e+00 6.0000000000000000e+00
ITEM: ATOMS id type fx fy fz
1 1 -29.5241 -7.49669 1.40237
2 1 1.57228 -25.2441 29.2927
3 1 3.61926 12.8988 -3.64846
4 1 -22.8771 -26.1292 -22.3315
5 1 6.7734 -3.08875 14.8337
6 1 -29.0024 -0.870625 -2.78992
7 1 -13.4855 -3.22019 -12.1886
8 1 -12.8175 -10.9622 -0.0924576
9 1 -20.1192 12.0165 -8.14895
10 1 20.5393 -14.7198 11.7388
11 1 10.5212 22.7942 -16.6907
12 1 -8.29144 21.3121 13.0863
13 1 -5.72606 -1.87702 -11.6131
14 1 -3.04836 40.1916 14.9268
15 1 -17.7184 -33.34 5.10596
16 1 9.12761 17.1423 -9.98947
17 1 11.8578 24.5834 12.2241
18 1 -13.0742 -0.818485 3.62516
19 1 13.2784 19.3265 -19.5351
20 1 14.2715 -26.6627 1.1647
21 1 -7.82288 -6.01006 -15.6916
22 1 23.6423 21.0573 -8.15158
23 1 20.7145 -19.287 13.5788
24 1 24.2914 17.4608 9.63461
25 1 -3.25937 -5.6229 12.465
26 1 0.497418 -35.8986 -21.8527
27 1 -26.1383 19.8124 31.0622
28 1 -4.69965 6.53444 -21.5868
29 1 15.2086 -12.8711 -4.55795
30 1 -3.91843 16.0094 8.68179
31 1 -0.0616631 -19.3418 -17.9481
32 1 -3.02813 2.73499 13.8017
33 1 -9.14877 4.96921 -26.4901
34 1 2.84687 13.5314 10.3548
35 1 -2.47174 3.54958 5.46719
36 1 -25.2553 18.1192 11.3891
37 1 9.28314 -28.2186 11.1154
38 1 11.5372 -1.14142 -0.18639
39 1 12.6218 -15.8328 7.69775
40 1 -24.8187 -32.4567 -17.602
41 1 -0.134021 22.455 -0.731093
42 1 -0.726274 -10.4811 -3.99516
43 1 35.0039 -4.15102 2.53692
44 1 2.77999 4.68619 2.57766
45 1 -11.2771 1.17061 -3.57797
46 1 26.8607 -2.8555 5.47063
47 1 1.13164 16.212 -6.38841
48 1 8.06653 8.66842 4.84734
49 1 27.1936 0.33567 -13.7686
50 1 8.11619 0.0265561 10.1333
51 1 -14.263 3.14279 7.86729
52 1 32.5685 -26.064 -6.01365
53 1 -8.44262 -3.5479 3.36129
54 1 -6.49694 3.13612 12.2735
55 1 -19.7183 -14.6646 -11.4687
56 1 13.2412 35.0387 -4.67809
57 1 23.3863 1.09873 -8.9336
58 1 -19.6462 6.83458 16.9783
59 1 -19.8829 5.80459 -5.08098
60 1 10.5643 -12.0744 -2.71932
61 1 1.9851 2.77892 -12.7627
62 1 -18.8511 -9.77339 0.725951
63 1 16.304 7.40148 -19.6594
64 1 -13.6545 1.89297 31.4489
65 2 -0.00591082 -0.00445657 0.00338259
ITEM: TIMESTEP
9000
ITEM: NUMBER OF ATOMS
65
ITEM: BOX BOUNDS pp pp pp
0.0000000000000000e+00 6.0000000000000000e+00
0.0000000000000000e+00 6.0000000000000000e+00
0.0000000000000000e+00 6.0000000000000000e+00
ITEM: ATOMS id type fx fy fz
1 1 -19.5395 -13.569 9.36223
2 1 2.97344 -3.58321 -19.866
3 1 -2.46587 -35.0739 6.07955
4 1 19.1804 27.7796 4.68803
5 1 -1.16685 2.91816 15.3646
6 1 -4.06495 -7.82661 -16.566
7 1 -29.5538 9.20311 7.70815
8 1 39.1169 -63.0496 -6.26123
9 1 -5.77662 -17.7731 4.23781
10 1 1.37046 6.15595 -1.71914
11 1 -34.3705 -19.2363 19.7487
12 1 10.091 48.1692 -22.5865
13 1 -19.9006 29.1655 -23.9101
14 1 -1.86279 4.71815 35.4925
15 1 8.35145 45.5916 -5.84766
16 1 5.19181 -15.6076 -4.53153
17 1 22.6473 1.99448 28.1526
18 1 -17.3956 -2.50915 -17.0917
19 1 -3.1069 13.9489 16.9865
20 1 -33.2545 11.1385 -28.2512
21 1 2.61042 0.566524 -0.820987
22 1 4.11263 22.1056 -20.1104
23 1 5.2744 -5.16249 17.2121
24 1 -6.38403 19.251 2.11884
25 1 5.08913 14.6733 -37.0151
26 1 -3.61776 -43.6938 32.0369
27 1 33.6614 -1.92671 -15.7186
28 1 -23.901 -13.7721 22.133
29 1 15.874 -16.7474 9.95184
30 1 17.9255 23.992 2.47772
31 1 9.01116 -6.63636 -11.184
32 1 -6.03359 -14.3867 -2.6954
33 1 -25.1921 -14.5367 7.39154
34 1 0.689859 9.85034 -12.5113
35 1 -13.6427 19.1092 10.191
36 1 2.41955 -19.5365 -5.47145
37 1 16.0392 1.01195 -13.3662
38 1 17.5637 -0.180288 25.1996
39 1 5.82169 -13.8153 -11.7698
40 1 -3.50477 -10.4764 1.62774
41 1 -19.6475 -11.3394 15.4102
42 1 11.6679 -12.0741 -6.05932
43 1 -19.6299 -6.19972 -2.04916
44 1 26.3454 18.8106 -7.40578
45 1 -28.4791 24.1072 2.90276
46 1 -4.6525 3.98572 11.8308
47 1 -10.1182 -0.24759 -1.358
48 1 -13.6374 11.6891 -12.4787
49 1 23.3669 -12.4786 0.298065
50 1 12.645 -31.5612 -6.87301
51 1 18.2082 14.5157 34.4491
52 1 12.9258 -8.47675 -27.6996
53 1 -17.2957 15.7533 9.52875
54 1 -17.5559 8.4291 22.4088
55 1 18.7191 -13.1728 -4.04886
56 1 -29.2891 6.18757 -28.9173
57 1 20.094 -10.0576 -12.3207
58 1 -9.15457 -6.82371 -8.59579
59 1 19.3943 1.4671 14.546
60 1 -11.1394 11.0451 6.5188
61 1 31.9634 6.43169 11.9977
62 1 -10.9452 29.4282 -18.6688
63 1 -6.96691 -2.21282 13.0636
64 1 12.8941 -9.45295 -7.34555
65 2 0.00673482 0.00312083 -0.000598711
ITEM: TIMESTEP
10000
ITEM: NUMBER OF ATOMS
65
ITEM: BOX BOUNDS pp pp pp
0.0000000000000000e+00 6.0000000000000000e+00
0.0000000000000000e+00 6.0000000000000000e+00
0.0000000000000000e+00 6.0000000000000000e+00
ITEM: ATOMS id type fx fy fz
1 1 26.9864 -6.07786 -31.3409
2 1 -5.15274 13.6377 11.8732
3 1 20.0849 -25.1847 -18.6213
4 1 -13.7886 -11.0851 38.3058
5 1 -8.87761 21.5409 -13.8725
6 1 8.12793 -30.2638 26.6646
7 1 19.8179 6.74571 6.50997
8 1 27.373 3.05934 -19.2268
9 1 16.0449 -20.7917 -4.36583
10 1 -18.3882 27.484 -2.82615
11 1 -17.4606 -2.76119 -1.46427
12 1 18.411 27.778 9.38229
13 1 10.2022 4.38396 21.662
14 1 -8.23682 -10.3031 0.610726
15 1 15.2517 20.9858 8.9754
16 1 17.3814 -17.5618 -31.3981
17 1 -28.4748 16.3129 -9.60203
18 1 1.754 15.8122 -11.4664
19 1 -3.32562 -3.03344 4.65237
20 1 -16.413 11.4445 16.1973
21 1 23.4529 10.8601 9.2183
22 1 -17.413 -9.34193 -4.37572
23 1 -22.7191 7.19435 17.3535
24 1 -33.0072 4.9383 -22.0827
25 1 -15.2365 -6.32257 7.26611
26 1 8.90469 3.30073 -12.0635
27 1 3.7634 -8.4217 18.2082
28 1 3.85918 -23.1848 -14.0878
29 1 -9.48224 -19.4609 10.8042
30 1 13.4616 -10.1027 -7.62635
31 1 16.6189 3.92739 -6.46059
32 1 -7.06459 4.76083 2.97725
33 1 34.6898 3.91699 -17.515
34 1 -27.1226 1.34931 5.95136
35 1 -29.0574 -9.32268 -4.80578
36 1 9.87635 -11.3378 15.8211
37 1 -11.9807 -7.3109 -2.81164
38 1 0.0516924 -6.11997 -5.53747
39 1 20.6879 17.4083 5.02219
40 1 -0.418038 3.99777 2.82451
41 1 -0.161333 -16.16 20.4982
42 1 -14.0985 9.5246 -14.7295
43 1 1.02895 -4.6497 7.92516
44 1 -2.93664 -16.2298 -12.6728
45 1 -13.8985 19.4444 -8.25765
46 1 -24.5785 -5.49159 19.802
47 1 -25.5281 -2.84339 6.52664
48 1 -12.5633 24.0635 -16.6318
49 1 -33.4784 4.62208 -13.4403
50 1 33.0266 0.93085 -0.440795
51 1 11.5349 12.0102 0.110986
52 1 20.8041 10.7025 12.3455
53 1 -2.32175 -3.3824 -3.88561
54 1 8.00372 -10.2171 17.4024
55 1 -17.2192 -17.28 -0.546784
56 1 5.43315 -20.6805 -12.2445
57 1 -0.583753 -1.28722 23.029
58 1 23.6891 -10.7388 -8.27283
59 1 12.3692 9.358 13.3587
60 1 -19.1586 11.4064 -29.0518
61 1 12.8109 0.124517 11.4896
62 1 18.7655 19.408 -5.89913
63 1 -6.5384 -3.84965 8.72612
64 1 2.42018 -1.63735 -13.8687
65 2 -0.00351978 0.00198408 -0.00167835
ITEM: TIMESTEP
11000
ITEM: NUMBER OF ATOMS
65
ITEM: BOX BOUNDS pp pp pp
0.0000000000000000e+00 6.0000000000000000e+00
0.0000000000000000e+00 6.0000000000000000e+00
0.0000000000000000e+00 6.0000000000000000e+00
ITEM: ATOMS id type fx fy fz
1 1 12.196 9.7445 23.9629
2 1 -16.3291 -8.10655 -36.9071
3 1 -18.2736 11.7857 30.566
4 1 -30.0664 15.4706 -18.3078
5 1 13.8005 21.1258 8.01346
6 1 -2.9084 10.0571 -6.5558
7 1 -13.9912 12.6012 7.13982
8 1 -14.1835 25.1463 -12.0995
9 1 11.8281 -16.9897 -9.81697
10 1 23.0233 -1.48999 15.5263
11 1 27.0644 21.0891 -9.39425
12 1 -10.1889 -42.8718 6.23755
13 1 23.2624 -13.9406 -17.5761
14 1 19.2113 0.898423 25.1301
15 1 -1.74451 -46.7592 -30.2576
16 1 32.2452 3.84136 21.6398
17 1 1.27081 1.6786 -9.40177
18 1 -3.88921 -0.333874 -3.27972
19 1 29.4599 -12.5152 6.49797
20 1 15.9392 -14.0667 4.794
21 1 5.94614 -15.229 -10.4708
22 1 -15.3929 -10.3927 21.7429
23 1 13.0763 1.65336 -22.8195
24 1 15.1297 10.0865 13.4152
25 1 -5.27419 21.9517 8.85305
26 1 -7.61603 22.2742 -22.6717
27 1 -20.3681 -8.47654 26.5262
28 1 13.175 5.5844 -14.4807
29 1 -21.6032 -9.10455 -3.69215
30 1 -19.6811 -12.8455 6.51197
31 1 6.67289 20.8874 8.37271
32 1 -14.1646 -0.764823 -8.92522
33 1 18.0382 20.4668 -18.8965
34 1 -6.75258 15.2294 -0.715665
35 1 -37.7892 2.06049 5.0793
36 1 -33.5317 -23.118 15.67
37 1 -25.7077 -5.98622 6.08505
38 1 -16.4827 -14.9962 -5.26494
39 1 -21.4974 -1.16162 0.406293
40 1 -31.9782 23.2436 -2.2146
41 1 2.8043 7.93603 2.88349
42 1 0.395026 13.9649 13.4867
43 1 -4.07316 7.05211 -26.5388
44 1 -25.8535 -7.75774 10.8091
45 1 9.86399 -18.7189 -8.47466
46 1 -11.6591 -15.47 11.8044
47 1 -7.24 -7.39119 1.7483
48 1 9.20602 4.11615 -5.28762
49 1 -31.8121 1.71595 18.4177
50 1 28.6221 15.2866 -13.2255
51 1 28.5234 -7.03374 17.5102
52 1 44.8043 2.18133 -21.5825
53 1 6.72635 -10.9874 -11.4458
54 1 33.3069 -11.0751 20.2963
55 1 23.4045 14.0451 13.0475
56 1 29.5618 6.82247 -21.4326
57 1 -9.05529 11.7189 -11.1261
58 1 -14.9349 -16.1098 13.539
59 1 -4.67141 -30.0858 -14.3618
60 1 23.754 -35.9963 12.0841
61 1 -11.6379 -2.90873 -24.6149
62 1 11.5126 11.7966 20.7009
63 1 3.55321 23.5779 -11.7602
64 1 -27.0285 25.607 15.0877
65 2 0.00258541 -0.0141995 0.0127238
ITEM: TIMESTEP
12000
ITEM: NUMBER OF ATOMS
65
ITEM: BOX BOUNDS pp pp pp
0.0000000000000000e+00 6.0000000000000000e+00
0.0000000000000000e+00 6.0000000000000000e+00
0.0000000000000000e+00 6.0000000000000000e+00
ITEM: ATOMS id type fx fy fz
1 1 -18.9422 17.0043 -4.71888
2 1 32.5789 0.948572 11.2807
3 1 34.1163 13.2167 -26.5611
4 1 20.6656 -3.5018 19.8631
5 1 2.50767 -0.826846 -7.47826
6 1 2.15268 17.918 10.1528
7 1 7.81345 3.31686 -18.9606
8 1 21.3672 7.09106 14.7231
9 1 5.57646 -2.14756 20.8993
10 1 24.9882 -40.5749 -11.0052
11 1 -6.09426 12.3525 25.3552
12 1 38.5157 -9.85033 -34.6153
13 1 -13.425 -14.1078 20.3542
14 1 22.3092 18.8006 -9.73101
15 1 -22.6439 -27.8163 -1.55802
16 1 -18.6357 6.08131 -9.12361
17 1 36.3722 5.05754 18.2254
18 1 -50.9052 -27.2327 -24.6279
19 1 -5.21652 12.3988 8.7812
20 1 -27.8618 6.33105 -1.5034
21 1 -2.80355 -12.8538 -8.78642
22 1 -8.05291 11.7288 -6.55221
23 1 -4.59331 -24.8481 34.2266
24 1 -27.0703 4.1397 -18.1916
25 1 5.33998 22.029 -28.7386
26 1 3.92978 -16.5286 18.8302
27 1 -1.66684 37.4242 -13.2795
28 1 -5.69546 -6.85063 23.139
29 1 -17.9234 -13.0584 -2.04397
30 1 -31.8256 33.5103 9.7296
31 1 10.7556 -25.4499 11.8039
32 1 6.61138 -3.66381 -19.8797
33 1 -28.6656 14.7799 7.06808
34 1 41.1677 3.2103 -35.2066
35 1 -8.18731 -15.0912 13.3722
36 1 23.0918 29.3326 14.5155
37 1 0.0308766 5.0514 3.83172
38 1 9.74605 21.7608 1.83074
39 1 -10.1516 14.4019 9.20615
40 1 31.6682 -16.734 -14.5505
41 1 -14.596 9.84186 7.46726
42 1 -20.1812 -6.47613 -2.65264
43 1 -8.47013 7.75043 10.5527
44 1 -15.4588 4.90344 -15.1888
45 1 31.4712 -30.6876 -14.4718
46 1 13.6163 -19.0371 -8.28348
47 1 4.74152 -7.61829 20.2424
48 1 5.02034 -16.0473 2.37257
49 1 13.1883 -8.06434 19.7971
50 1 -25.1053 1.58163 -16.5418
51 1 -20.5438 11.6602 10.6863
52 1 -15.5731 -2.34008 -13.7134
53 1 0.31258 -7.39942 0.390784
54 1 -3.20051 -9.47622 9.92906
55 1 8.1111 -3.26385 -8.34803
56 1 -28.2906 1.9561 -2.24124
57 1 5.41245 -5.37798 12.6297
58 1 -9.98457 4.68877 -10.9061
59 1 18.0041 -3.31274 9.64718
60 1 -18.7784 -12.1239 -11.2093
61 1 -1.00146 21.038 5.19717
62 1 -3.27593 3.59016 15.0572
63 1 7.6561 -4.15514 2.51722
64 1 5.98234 11.6227 -23.0117
65 2 -0.00122151 -0.00298206 0.00506456
ITEM: TIMESTEP
13000
ITEM: NUMBER OF ATOMS
65
ITEM: BOX BOUNDS pp pp pp
0.0000000000000000e+00 6.0000000000000000e+00
0.0000000000000000e+00 6.0000000000000000e+00
0.0000000000000000e+00 6.0000000000000000e+00
ITEM: ATOMS id type fx fy fz
1 1 22.7349 8.63021 9.73129
2 1 -12.2517 29.2433 -29.2604
3 1 8.86561 -12.5522 33.4932
4 1 -3.5908 18.5705 -14.7747
5 1 -15.8042 -4.44927 -3.49323
6 1 -9.39855 4.12231 -17.1077
7 1 11.4215 4.46457 12.0011
8 1 7.24112 -23.3559 10.3053
9 1 -13.044 8.15163 -24.2322
10 1 -1.61796 -9.18557 20.5467
11 1 -2.97555 -13.758 -25.2799
12 1 -24.4291 21.7099 28.1722
13 1 -19.4472 -13.909 25.3947
14 1 -3.29445 -24.4029 -44.7368
15 1 -4.93591 19.9429 26.8789
16 1 -39.5527 -16.5055 -6.99035
17 1 -4.10536 -17.1408 -11.6226
18 1 35.8356 15.4182 10.8786
19 1 -29.8226 -4.62969 -19.6472
20 1 4.81537 -7.01687 21.9118
21 1 -12.0975 17.9896 -13.4222
22 1 12.3013 -26.9169 20.9797
23 1 -6.35768 0.236738 4.47749
24 1 9.38137 0.515439 -12.9217
25 1 17.1432 -22.5752 7.16464
26 1 40.0245 15.2649 -1.55745
27 1 -22.413 12.8479 -30.9542
28 1 22.7497 -3.14648 25.882
29 1 -2.92704 21.2722 -8.66059
30 1 14.1787 -4.67953 9.54729
31 1 3.62169 -6.67127 3.37101
32 1 19.5334 10.8164 -5.79519
33 1 9.78268 2.00201 -23.2115
34 1 -40.3669 -7.2164 -13.1008
35 1 16.7116 -16.2057 -7.9139
36 1 -26.1728 17.1812 43.2537
37 1 27.0159 0.913982 -5.76023
38 1 9.0783 2.5783 5.99484
39 1 19.6996 4.10399 -14.6052
40 1 5.373 -28.8833 16.693
41 1 -6.88097 -15.4338 14.6587
42 1 -39.7577 -0.63367 -7.13168
43 1 23.3854 -13.4074 -2.73528
44 1 -10.6342 15.1069 -5.38192
45 1 -2.96315 12.0552 -19.8366
46 1 -16.1656 5.73359 5.06036
47 1 -9.61734 24.8525 31.745
48 1 4.59805 -4.82285 -16.2409
49 1 -29.8076 -5.79667 -8.68529
50 1 17.6719 14.0085 24.9077
51 1 4.0033 -6.7936 -27.3989
52 1 24.9669 17.3228 11.1243
53 1 -1.72903 5.70569 -5.6102
54 1 -10.814 -10.9967 9.57235
55 1 -26.9334 -7.32384 13.3096
56 1 -18.5033 -6.48887 -18.85
57 1 2.83537 -2.17096 3.42839
58 1 2.94558 -0.418311 1.56905
59 1 0.844008 16.6179 -26.1353
60 1 12.9811 4.39907 21.6659
61 1 25.6937 3.48785 -1.52373
62 1 4.92219 -3.47107 12.8774
63 1 11.2471 -0.0596419 -7.66992
64 1 14.8067 -14.2528 -4.34317
65 2 0.000838793 0.00464874 -0.00507835
ITEM: TIMESTEP
14000
ITEM: NUMBER OF ATOMS
65
ITEM: BOX BOUNDS pp pp pp
0.0000000000000000e+00 6.0000000000000000e+00