65
Atoms. Timestep: 0
2 0.75 0.75 0.75
1 0 0 0
1 0 0 1.5
1 0 0 3
1 0 0 4.5
1 0 1.5 0
1 0 1.5 1.5
1 0 1.5 3
1 0 1.5 4.5
1 0 3 0
1 0 3 1.5
1 0 3 3
1 0 3 4.5
1 0 4.5 0
1 0 4.5 1.5
1 0 4.5 3
1 0 4.5 4.5
1 1.5 0 0
1 1.5 0 1.5
1 1.5 0 3
1 1.5 0 4.5
1 1.5 1.5 0
1 1.5 1.5 1.5
1 1.5 1.5 3
1 1.5 1.5 4.5
1 1.5 3 0
1 1.5 3 1.5
1 1.5 3 3
1 1.5 3 4.5
1 1.5 4.5 0
1 1.5 4.5 1.5
1 1.5 4.5 3
1 1.5 4.5 4.5
1 3 0 0
1 3 0 1.5
1 3 0 3
1 3 0 4.5
1 3 1.5 0
1 3 1.5 1.5
1 3 1.5 3
1 3 1.5 4.5
1 3 3 0
1 3 3 1.5
1 3 3 3
1 3 3 4.5
1 3 4.5 0
1 3 4.5 1.5
1 3 4.5 3
1 3 4.5 4.5
1 4.5 0 0
1 4.5 0 1.5
1 4.5 0 3
1 4.5 0 4.5
1 4.5 1.5 0
1 4.5 1.5 1.5
1 4.5 1.5 3
1 4.5 1.5 4.5
1 4.5 3 0
1 4.5 3 1.5
1 4.5 3 3
1 4.5 3 4.5
1 4.5 4.5 0
1 4.5 4.5 1.5
1 4.5 4.5 3
1 4.5 4.5 4.5
65
Atoms. Timestep: 10
2 0.670456 0.642896 0.729912
1 -0.00067598 -0.00138262 -0.00208494
1 -0.000171159 0.00150304 1.49845
1 -0.000909951 -0.00146274 2.99948
1 -0.0050568 0.00127499 4.49876
1 0.00268747 1.49689 0.00316924
1 -0.00254447 1.50343 1.50355
1 0.00112242 1.49956 3.00305
1 0.00267813 1.50204 4.50259
1 0.00210666 2.99814 0.00322531
1 -0.00265657 3.00179 1.50318
1 0.0028844 2.99921 3.00388
1 0.00396678 3.00024 4.50407
1 0.0029501 4.49674 -0.00556952
1 -0.00386913 4.50217 1.4949
1 -0.00605077 4.50105 2.99524
1 -0.00106529 4.50047 4.49535
1 1.50184 -0.00276843 0.0029711
1 1.49919 0.00415454 1.50118
1 1.50074 0.00696294 3.00139
1 1.49761 -0.00454813 4.50276
1 1.50247 1.49871 -0.00494398
1 1.49637 1.5055 1.49539
1 1.50089 1.50682 2.99575
1 1.50414 1.49622 4.49679
1 1.50312 2.99766 0.00620607
1 1.49791 3.00389 1.50573
1 1.50338 3.00686 3.0059
1 1.50425 2.99556 4.50537
1 1.50312 4.49745 -0.00180487
1 1.49502 4.50405 1.49713
1 1.49555 4.50763 2.99783
1 1.49844 4.4948 4.49645
1 3.00103 -0.00305561 0.00253911
1 2.99858 0.00319664 1.50188
1 3.00089 -0.0083433 3.00192
1 2.99731 0.00137662 4.50116
1 3.00247 1.49698 -0.000256701
1 2.99763 1.50205 1.50081
1 3.00011 1.49262 2.99974
1 3.00329 1.50152 4.50017
1 3.00302 2.99663 -0.00821197
1 2.99833 3.00285 1.49122
1 3.00532 2.99247 2.99161
1 3.00463 3.00073 4.49143
1 3.00295 4.49567 0.00552702
1 2.99562 4.50226 1.50637
1 2.99587 4.49164 3.0069
1 2.99787 4.50188 4.50619
1 4.49909 0.00673207 -8.68537e-05
1 4.49884 0.00034479 1.5011
1 4.49922 -0.00646826 3.00091
1 4.49634 0.00270332 4.50146
1 4.50148 1.50679 -0.00177755
1 4.49584 1.50137 1.50011
1 4.50122 1.49156 2.99826
1 4.50354 1.5023 4.49898
1 4.50177 3.00606 -0.000262561
1 4.49867 2.99942 1.49861
1 4.5029 2.99331 2.99902
1 4.50469 3.00216 4.49823
1 4.50336 4.50638 0.00114255
1 4.49512 4.50044 1.50119
1 4.49496 4.49418 2.99957
1 4.49933 4.50262 4.49938
65
Atoms. Timestep: 20
2 0.59453 0.540689 0.71074
1 0.000398242 -0.00419591 -0.00271187
1 -0.00168292 0.00399385 1.49725
1 -6.87563e-05 -0.00142832 2.99743
1 -0.00725896 0.00187929 4.49729
1 0.00475308 1.49463 0.00619477
1 -0.00578112 1.50491 1.50619
1 0.00162882 1.49961 3.00617
1 0.00649311 1.50222 4.50613
1 0.00498351 2.99579 0.00713512
1 -0.00404118 3.00405 1.50715
1 0.00748459 2.99879 3.00718
1 0.00870994 3.00183 4.50724
1 0.00602072 4.4946 -0.0101477
1 -0.00873465 4.50482 1.49001
1 -0.00995319 4.49977 2.98989
1 -0.00284002 4.50212 4.4901
1 1.50086 -0.00470249 0.00422823
1 1.49813 0.00857966 1.504
1 1.50012 0.0139635 3.00421
1 1.49349 -0.00893531 4.50407
1 1.50435 1.49584 -0.00874585
1 1.49311 1.50919 1.49167
1 1.50183 1.51426 2.99131
1 1.50713 1.49112 4.4918
1 1.50514 2.99529 0.0118515
1 1.49638 3.00843 1.5114
1 1.5071 3.01405 3.01173
1 1.5089 2.991 4.51132
1 1.50629 4.49568 -0.004738
1 1.49067 4.50894 1.49439
1 1.49048 4.51414 2.99534
1 1.49747 4.49094 4.4943
1 3.00062 -0.00673101 0.00405039
1 2.99822 0.00547173 1.50357
1 2.99989 -0.0159658 3.00398
1 2.99284 0.00249844 4.50342
1 3.0048 1.49306 -2.31809e-05
1 2.99416 1.50491 1.50057
1 3.00138 1.48438 2.99991
1 3.00653 1.50302 4.50043
1 3.00508 2.99333 -0.0167725
1 2.99593 3.00554 1.48296
1 3.00756 2.98435 2.98319
1 3.00865 3.00258 4.4829
1 3.00612 4.49281 0.0124081
1 2.99124 4.5047 1.51252
1 2.98997 4.4841 3.01249
1 2.99704 4.5029 4.51246
1 4.50066 0.0129285 0.00132114
1 4.49812 0.000456324 1.50204
1 4.49992 -0.0134773 3.00145
1 4.49339 0.0049211 4.50201
1 4.5043 1.51305 -0.00265089
1 4.49311 1.5012 1.49836
1 4.50187 1.48602 2.99731
1 4.50715 1.50488 4.49815
1 4.50486 3.01286 -0.00183957
1 4.49627 3.00039 1.49748
1 4.5068 2.9865 2.9981
1 4.50878 3.00485 4.49742
1 4.50628 4.51303 0.000754562
1 4.49067 4.50113 1.50063
1 4.49019 4.48618 3.0006
1 4.49747 4.50492 4.50053
65
Atoms. Timestep: 30
2 0.525696 0.448013 0.693379
1 0.0017085 -0.00775266 -0.00323474
1 -0.00339942 0.00700388 1.49613
1 0.000893918 -0.000609142 2.99523
1 -0.00884904 0.00260878 4.49586
1 0.00646804 1.49313 0.00916118
1 -0.00965669 1.50577 1.50872
1 0.00233717 1.49921 3.0092
1 0.0107964 1.50205 4.50972
1 0.00785663 2.99283 0.0111302
1 -0.00514619 3.00686 1.51114
1 0.0118699 2.99897 3.01038
1 0.0135797 3.00374 4.51029
1 0.00913722 4.49323 -0.0144544
1 -0.0139378 4.50697 1.48506
1 -0.013521 4.49759 2.98469
1 -0.00441334 4.50358 4.48476
1 1.49953 -0.00630775 0.00524451
1 1.49711 0.0131993 1.50695
1 1.4994 0.0209953 3.00699
1 1.48892 -0.0132543 4.50523
1 1.50641 1.49259 -0.0120816
1 1.49051 1.51234 1.4879
1 1.50268 1.52135 2.9873
1 1.50965 1.48601 4.48639
1 1.50717 2.99319 0.0169769
1 1.49474 3.01339 1.51712
1 1.51125 3.02114 3.01732
1 1.51352 2.98656 4.5173
1 1.50934 4.49368 -0.00810462
1 1.48682 4.51361 1.49222
1 1.48524 4.52029 2.99235
1 1.49635 4.48726 4.49284
1 3.00029 -0.0105824 0.00519116
1 2.99783 0.00721648 1.50557
1 2.9987 -0.0232615 3.00578
1 2.9887 0.00384942 4.50605
1 3.00688 1.48938 0.000501005
1 2.99007 1.5081 1.4999
1 3.00287 1.47628 3.00037
1 3.01002 1.50419 4.50033
1 3.00701 2.98999 -0.0252235
1 2.99366 3.00784 1.47516
1 3.00889 2.97638 2.97482
1 3.01261 3.00473 4.47474
1 3.00939 4.49028 0.0192835
1 2.98654 4.50745 1.51849
1 2.98414 4.47672 3.01784
1 2.99651 4.50344 4.51855
1 4.50225 0.0190222 0.00324189
1 4.49748 0.000979534 1.50261
1 4.50072 -0.0207349 3.00232
1 4.49017 0.00707585 4.50211
1 4.50745 1.51907 -0.00290052
1 4.49111 1.50048 1.49587
1 4.50225 1.48102 2.99702
1 4.51033 1.50743 4.49684
1 4.50809 3.01969 -0.0039193
1 4.49361 3.00192 1.4968
1 4.51116 2.97963 2.99675
1 4.51271 3.00759 4.49702
1 4.50896 4.51951 0.000171654
1 4.48658 4.50142 1.50003
1 4.48546 4.47835 3.0017
1 4.49533 4.50715 4.5018
65
Atoms. Timestep: 40
2 0.467123 0.369004 0.678682
1 0.00131753 -0.0103088 -0.00517588
1 -0.0039084 0.00942698 1.49476
1 8.64854e-05 -0.00082377 2.99453
1 -0.0128102 0.00415151 4.49479
1 0.00848025 1.49145 0.0121687
1 -0.0132938 1.50814 1.51196
1 0.00380529 1.498 3.01199
1 0.0142682 1.50355 4.5122
1 0.00987698 2.99007 0.0143793
1 -0.0073159 3.00958 1.51421
1 0.0143335 2.99933 3.01402
1 0.0176479 3.00444 4.51409
1 0.0119961 4.49144 -0.0194309
1 -0.0182625 4.50819 1.47996
1 -0.0189339 4.49713 2.98032
1 -0.00511266 4.50353 4.48016
1 1.50086 -0.00851024 0.00771266
1 1.49631 0.0176314 1.50815
1 1.49992 0.0274727 3.00812
1 1.48587 -0.0174451 4.50769
1 1.50919 1.49077 -0.0160142
1 1.48814 1.51689 1.48343
1 1.50356 1.52718 2.98415
1 1.51294 1.48242 4.48274
1 1.51034 2.99132 0.0217672
1 1.49253 3.01794 1.52254
1 1.51534 3.02734 3.02238
1 1.5177 2.98252 4.5223
1 1.51217 4.49073 -0.0104116
1 1.48284 4.51711 1.49049
1 1.48068 4.52691 2.98957
1 1.49459 4.48246 4.49067
1 3.00149 -0.0137164 0.00711144
1 2.99624 0.00927315 1.50802
1 2.99926 -0.0304821 3.00726
1 2.98676 0.00543205 4.50788
1 3.00892 1.48713 0.000640061
1 2.98672 1.51051 1.49985
1 3.00318 1.46957 3.00049
1 3.01361 1.50501 4.49965
1 3.00986 2.98684 -0.0326161
1 2.99231 3.00978 1.4679
1 3.01255 2.96964 2.9671
1 3.01699 3.00579 4.46746
1 3.01241 4.48666 0.0244114
1 2.98165 4.51009 1.52412
1 2.98031 4.46893 3.02395
1 2.99482 4.50428 4.52399
1 4.50127 0.0253313 0.0040124
1 4.4964 0.00209223 1.50304
1 4.49994 -0.0273299 3.00388
1 4.48625 0.00964689 4.50282
1 4.50939 1.52517 -0.00355682
1 4.48833 1.501 1.49481
1 4.50305 1.47363 2.99641
1 4.51306 1.50959 4.49507
1 4.51002 3.02551 -0.0049691
1 4.49194 3.00223 1.49607
1 4.51454 2.97309 2.99499
1 4.51706 3.00979 4.49583
1 4.51175 4.52524 0.00108072
1 4.48245 4.50114 1.50116
1 4.48072 4.47316 3.00141
1 4.49428 4.50953 4.50119
65
Atoms. Timestep: 50
2 0.421488 0.307013 0.667381
1 0.000484068 5.98869 5.99271
1 5.99578 0.010954 1.49343
1 5.99896 5.99777 2.99425
1 5.98277 0.00535937 4.49383
1 0.0109068 1.48911 0.014898
1 5.9844 1.51135 1.51498
1 0.00497417 1.49732 3.01453
1 0.0166001 1.50535 4.51417
1 0.0117879 2.98854 0.0171632
1 5.99029 3.01151 1.51695
1 0.0164431 2.99896 3.0175
1 0.0211942 3.00454 4.51783
1 0.0142798 4.48888 5.97566
1 5.97824 4.50998 1.47549
1 5.97575 4.4983 2.97628
1 5.99404 4.50366 4.47622
1 1.50272 5.98884 0.0100844
1 1.49535 0.0217168 1.50865
1 1.50042 0.0321437 3.00891
1 1.48406 5.97905 4.50987
1 1.51151 1.48965 5.98033
1 1.48513 1.52216 1.47971
1 1.50452 1.53223 2.98117
1 1.51662 1.47956 4.4807
1 1.51359 2.9891 0.0262021
1 1.49073 3.02146 1.52648
1 1.51837 3.03228 3.02615
1 1.5217 2.97889 4.52588
1 1.51471 4.48813 5.98848
1 1.47842 4.52053 1.48863
1 1.47729 4.53233 2.98834
1 1.49319 4.47797 4.48799
1 3.00275 5.98425 0.00972822
1 2.99455 0.011459 1.51021
1 2.99995 5.96316 3.00912
1 2.98486 0.00604409 4.50915
1 3.01114 1.48531 5.99994
1 2.98449 1.51205 1.50004
1 3.0031 1.46418 2.99975
1 3.01669 1.50572 4.49905
1 3.01292 2.98455 5.96182
1 2.99087 3.01173 1.46199
1 3.01731 2.96457 2.96134
1 3.02119 3.00587 4.4616
1 3.01485 4.4832 0.0282433
1 2.97763 4.51152 1.52878
1 2.97682 4.46229 3.02916
1 2.99275 4.50517 4.52837
1 4.50002 0.0308896 0.00396049
1 4.49506 0.00260384 1.50404
1 4.49863 5.96729 3.00504
1 4.48292 0.0121847 4.50409
1 4.51069 1.53065 5.995
1 4.48478 1.50235 1.49526
1 4.50454 1.46623 2.99496
1 4.51618 1.51144 4.49396
1 4.51156 3.03023 5.99466
1 4.49075 3.00172 1.49452
1 4.5167 2.9674 2.9938
1 4.5214 3.01166 4.49381
1 4.51454 4.53023 0.00237242
1 4.47827 4.5015 1.5023
1 4.47616 4.46853 3.00085
1 4.4938 4.51185 4.50041
65
Atoms. Timestep: 60
2 0.389042 0.256519 0.658696
1 0.00104549 5.98827 5.99226
1 5.99419 0.0123037 1.49251
1 5.99909 5.99683 2.99283
1 5.98099 0.00526247 4.49267
1 0.0130626 1.48696 0.0168474
1 5.98326 1.51348 1.5166
1 0.00536498 1.49806 3.01661
1 0.0187235 1.50539 4.51651
1 0.0144521 2.98828 0.0200662
1 5.98909 3.01285 1.51997
1 0.0195812 2.99801 3.02004
1 0.0249645 3.00535 4.52029
1 0.0159156 4.48666 5.97219
1 5.97487 4.51313 1.47219
1 5.97306 4.49871 2.97224
1 5.99236 4.50529 4.47263
1 1.50214 5.98664 0.0103639
1 1.49387 0.025366 1.50992
1 1.49946 0.034585 3.01063
1 1.48203 5.97652 4.51001
1 1.51258 1.48762 5.97847
1 1.48172 1.52613 1.47832
1 1.50548 1.53583 2.97846
1 1.51942 1.47651 4.47887
1 1.51563 2.98654 0.0290735
1 1.49001 3.02446 1.52811
1 1.52021 3.03531 3.02814
1 1.52565 2.97601 4.52771
1 1.51672 4.48688 5.988
1 1.47432 4.52495 1.48691
1 1.47445 4.5347 2.98855
1 1.49284 4.47567 4.48651
1 3.00226 5.98312 0.0120938
1 2.99393 0.0128044 1.5118
1 2.99844 5.95899 3.01168
1 2.98111 0.00507337 4.51091
1 3.01337 1.4832 5.99864
1 2.98269 1.51296 1.49934
1 3.00406 1.46026 2.99823
1 3.01892 1.50594 4.49866
1 3.01498 2.98356 5.95882
1 2.98864 3.0134 1.45866
1 3.01969 2.961 2.95859
1 3.0245 3.00574 4.45819
1 3.01663 4.48196 0.0314022
1 2.9749 4.51149 1.53159
1 2.97223 4.45872 3.03151
1 2.99187 4.50512 4.53124
1 4.50142 0.0344209 0.00450701
1 4.49388 0.00211065 1.5056
1 4.49851 5.96295 3.00508
1 4.48144 0.0139232 4.50513
1 4.51261 1.53439 5.99368
1 4.48187 1.50301 1.49531
1 4.50586 1.46234 2.99349
1 4.51971 1.51333 4.49399
1 4.51419 3.03411 5.99344
1 4.48914 3.00204 1.49248
1 4.51869 2.96303 2.99325
1 4.5249 3.01357 4.49204
1 4.51666 4.5344 0.00229163
1 4.47446 4.50293 1.50164
1 4.47256 4.46251 3.00161
1 4.49271 4.51365 4.50146
65
Atoms. Timestep: 70
2 0.366177 0.209305 0.654075
1 0.00209916 5.98754 5.99265
1 5.99214 0.0141861 1.49181
1 5.99888 5.99726 2.99122
1 5.98084 0.00493968 4.49164
1 0.0142957 1.48633 0.0179324
1 5.98179 1.51466 1.51738
1 0.00616419 1.49902 3.0178
1 0.0213876 1.50488 4.51842
1 0.0171445 2.98832 0.0225342
1 5.98853 3.01448 1.5224
1 0.0221423 2.99775 3.02171
1 0.0285668 3.00634 4.52175
1 0.0169391 4.48623 5.97028
1 5.97191 4.5157 1.46972
1 5.97176 4.49739 2.96933
1 5.99121 4.50632 4.46992
1 1.50073 5.98522 0.00970059
1 1.49228 0.0282643 1.51079
1 1.49787 0.0352051 3.01154
1 1.47982 5.97487 4.50919
1 1.5136 1.48505 5.97834
1 1.47956 1.52857 1.47874
1 1.50647 1.53569 2.97776
1 1.52114 1.47435 4.47752
1 1.51715 2.98457 0.0285353
1 1.48931 3.02801 1.52761
1 1.52161 3.03521 3.02846
1 1.52887 2.97472 4.52737
1 1.51778 4.48579 5.9883
1 1.47178 4.52917 1.48663
1 1.47138 4.53448 2.9887
1 1.49249 4.47503 4.48721
1 3.00134 5.98285 0.0138403
1 2.99322 0.0127412 1.51352
1 2.99602 5.95804 3.01418
1 2.97833 0.00357272 4.51339
1 3.0151 1.48251 5.99713
1 2.98112 1.51271 1.49751
1 3.00565 1.45907 2.9964
1 3.0206 1.50475 4.49737
1 3.01652 2.98373 5.95912
1 2.98705 3.01371 1.45887
1 3.01925 2.95918 2.95886
1 3.0272 3.00489 4.45837
1 3.01776 4.48275 0.032588
1 2.97243 4.51126 1.53204
1 2.96883 4.45818 3.03142
1 2.99183 4.50362 4.53199
1 4.50334 0.0358426 0.0057768
1 4.49273 0.00215209 1.50662
1 4.49869 5.95964 3.00511
1 4.48097 0.0148578 4.50571
1 4.51471 1.53608 5.99353
1 4.48044 1.50303 1.49396
1 4.50617 1.46071 2.99322
1 4.52216 1.51509 4.49425
1 4.51723 3.03647 5.99135
1 4.48778 3.00314 1.49117
1 4.52077 2.96033 2.9919
1 4.52763 3.01516 4.49089
1 4.51747 4.53671 0.00151019
1 4.47137 4.50385 1.50104
1 4.47087 4.45816 3.00275
1 4.49139 4.51478 4.50262
65
Atoms. Timestep: 80
2 0.347174 0.166869 0.651727
1 0.00177664 5.98707 5.99197
1 5.99094 0.0163423 1.49111
1 5.99657 5.99816 2.99112
1 5.98 0.00555449 4.49129
1 0.0149798 1.48759 0.0183748
1 5.97975 1.51619 1.51811
1 0.00758208 1.49854 3.01794
1 0.023687 1.50542 4.51859
1 0.0187069 2.9881 0.0235474
1 5.98768 3.01675 1.52318
1 0.0220579 2.9986 3.02277
1 0.0308481 3.00627 4.52301
1 0.0171363 4.48755 5.96927
1 5.96999 4.51615 1.46815
1 5.96994 4.49626 2.96858
1 5.99157 4.50507 4.46871
1 1.50151 5.98412 0.00953931
1 1.49102 0.0306204 1.50977
1 1.49678 0.0328987 3.0101
1 1.47905 5.97464 4.50904
1 1.51546 1.48352 5.97954
1 1.47967 1.53075 1.47951
1 1.50737 1.53192 2.97964
1 1.52242 1.47438 4.47831
1 1.51923 2.98376 0.0250184
1 1.48805 3.03161 1.52519
1 1.52242 3.03221 3.02623
1 1.53081 2.97489 4.52502
1 1.51768 4.48373 5.98942
1 1.47057 4.53142 1.48856
1 1.46941 4.53198 2.98891
1 1.4914 4.47479 4.48929
1 3.00201 5.984 0.0155114
1 2.99114 0.01136 1.5159
1 2.99515 5.96025 3.01588
1 2.9793 0.00215379 4.51579
1 3.01598 1.48464 5.99528
1 2.97995 1.51134 1.49505
1 3.00673 1.46082 2.99468
1 3.0223 1.5019 4.49471
1 3.0188 2.98482 5.96276
1 2.98721 3.01208 1.46279
1 3.01884 2.96026 2.96199
1 3.02983 3.00252 4.46219
1 3.01798 4.48421 0.0307273
1 2.96975 4.51115 1.53025
1 2.96871 4.4598 3.02995
1 2.99146 4.50108 4.53017
1 4.50251 0.0358388 0.00676087
1 4.49117 0.00358845 1.50661
1 4.49713 5.95829 3.00636
1 4.48002 0.0155186 4.50606
1 4.51587 1.53599 5.99416
1 4.48012 1.50328 1.49282
1 4.50637 1.45914 2.99411
1 4.52273 1.5158 4.49362
1 4.51926 3.03626 5.98968
1 4.48748 3.00389 1.49055
1 4.52176 2.95935 2.98943
1 4.53014 3.01588 4.48978
1 4.51708 4.53614 0.00181536
1 4.46966 4.50346 1.50215
1 4.47028 4.45837 3.00259
1 4.49103 4.51547 4.50199
65
Atoms. Timestep: 90
2 0.333011 0.131787 0.651811
1 0.000940511 5.98817 5.99061
1 5.98985 0.0180555 1.4909
1 5.99375 5.99822 2.99183
1 5.97975 0.0060599 4.49145
1 0.0158323 1.48969 0.0181614
1 5.97894 1.51779 1.51808
1 0.00831311 1.49712 3.0174
1 0.0242183 1.50567 4.51743
1 0.019753 2.98841 0.0231578
1 5.98725 3.01874 1.52276
1 0.0198707 2.99945 3.02295
1 0.0317658 3.00543 4.52351
1 0.0161834 4.48942 5.96919
1 5.96896 4.51624 1.46838
1 5.96895 4.49711 2.96938
1 5.99211 4.50371 4.46903
1 1.50298 5.98316 0.00889122
1 1.48972 0.0331056 1.50761
1 1.49533 0.0265802 3.00782
1 1.48013 5.97631 4.50876
1 1.51682 1.48318 5.98221
1 1.48077 1.53293 1.48087
1 1.50791 1.52682 2.98253
1 1.52329 1.47616 4.48155
1 1.52139 2.98343 0.0207531
1 1.48742 3.03334 1.52083
1 1.5217 3.02736 3.02071
1 1.53197 2.97584 4.52096
1 1.51644 4.482 5.99109
1 1.46943 4.53207 1.49156
1 1.4701 4.52646 2.99084
1 1.49076 4.47531 4.49162
1 3.00321 5.98681 0.0174668
1 2.98874 0.00903697 1.51825
1 2.99503 5.9645 3.01709
1 2.98164 -0.000386894 4.51763
1 3.0163 1.48803 5.99288
1 2.97933 1.50973 1.49238
1 3.00729 1.4644 2.99272
1 3.02392 1.49838 4.49175
1 3.02134 2.98705 5.96892
1 2.98792 3.00938 1.46941
1 3.01983 2.96484 2.96817
1 3.03196 2.99919 4.46868
1 3.01686 4.48642 0.0267317
1 2.96817 4.50979 1.52654
1 2.97014 4.46346 3.02669
1 2.99111 4.49797 4.52627
1 4.50057 0.0342462 0.00707665
1 4.48937 0.00489235 1.50658
1 4.49409 5.95976 3.008
1 4.47932 0.0159621 4.50636
1 4.51632 1.53399 5.99463
1 4.48038 1.50382 1.49368
1 4.50781 1.45934 2.99469
1 4.52284 1.51518 4.49265
1 4.52042 3.03361 5.9887
1 4.48773 3.00414 1.48932
1 4.5207 2.96008 2.9877
1 4.53216 3.01573 4.4884
1 4.51613 4.53332 0.00287066
1 4.46954 4.50324 1.50304
1 4.46962 4.4609 3.00167
1 4.49151 4.51568 4.50114
65
Atoms. Timestep: 100
2 0.322881 0.104018 0.653155
1 0.0013531 5.99085 5.99059
1 5.98782 0.0188858 1.49147
1 5.99242 5.99777 2.99154
1 5.9818 0.00495738 4.49155
1 0.0166954 1.49145 0.0170333
1 5.98044 1.51859 1.51645
1 0.00831324 1.49708 3.01649
1 0.0234344 1.50425 4.51625
1 0.0216649 2.99051 0.022105
1 5.9881 3.01959 1.52193
1 0.0179462 2.9991 3.02191
1 0.0323981 3.00493 4.52228
1 0.0140777 4.49107 5.97059
1 5.96859 4.51802 1.47046
1 5.97059 4.49847 2.97078
1 5.99175 4.50419 4.47079
1 1.50222 5.98267 0.00682216
1 1.48784 0.0346786 1.50583
1 1.49258 0.0185481 3.00632
1 1.48192 5.97881 4.50687
1 1.51664 1.483 5.98597
1 1.48114 1.53404 1.48431
1 1.50843 1.52039 2.98535
1 1.52343 1.47851 4.48564
1 1.52262 2.98281 0.0159553
1 1.48819 3.03329 1.51505
1 1.51923 3.02024 3.01401
1 1.53292 2.97794 4.51518
1 1.51431 4.48231 5.99402
1 1.46871 4.5329 1.49395
1 1.47182 4.51891 2.99423
1 1.49163 4.47756 4.49404
1 3.00265 5.99065 0.0192856
1 2.98738 0.00641827 1.51966
1 2.99299 5.9698 3.01861
1 2.98228 -0.00470414 4.51908
1 3.01667 1.49071 5.99023
1 2.97976 1.50769 1.48982
1 3.00781 1.46955 2.99001
1 3.02438 1.49499 4.48945
1 3.02261 2.99062 5.97687
1 2.98803 3.00673 1.47721
1 3.01982 2.97132 2.97671
1 3.03273 2.99569 4.47691
1 3.0145 4.49011 0.0217046
1 2.96862 4.50681 1.52134
1 2.97093 4.46906 3.02147
1 2.99159 4.49465 4.52137
1 4.501 0.0302963 0.00735867
1 4.48771 0.00463792 1.5074
1 4.49167 5.96329 3.00829
1 4.48087 0.0155438 4.50682
1 4.51674 1.52982 5.99467
1 4.48112 1.50433 1.49536
1 4.50955 1.46311 2.99426
1 4.52368 1.5143 4.49315
1 4.52181 3.02975 5.98774
1 4.48802 3.00448 1.4874
1 4.51854 2.96305 2.98765
1 4.53295 3.015 4.48701
1 4.51472 4.52973 0.00286999
1 4.46972 4.50421 1.50204
1 4.47015 4.46321 3.00174
1 4.49199 4.51489 4.50165
65
Atoms. Timestep: 110
2 0.313081 0.0797995 0.652625
1 0.00222924 5.99388 5.99198
1 5.98558 0.0192076 1.49198
1 5.99124 5.99775 2.99076
1 5.98459 0.00310794 4.49164
1 0.016874 1.49305 0.0150685
1 5.98283 1.51924 1.51422
1 0.00866847 1.49888 3.01495
1 0.0230047 1.50293 4.51507
1 0.0237744 2.99425 0.0205028
1 5.98934 3.01957 1.52032
1 0.016916 2.99814 3.01994
1 0.0329238 3.00447 4.51983
1 0.0112487 4.49289 5.97356
1 5.96932 4.52027 1.47341
1 5.97353 4.49827 2.97293
1 5.99173 4.50447 4.47381
1 1.50045 5.98298 0.00439354
1 1.48574 0.033741 1.50448
1 1.48956 0.0112893 3.00482
1 1.48379 5.98121 4.50392
1 1.51605 1.48293 5.9899
1 1.48134 1.53373 1.48952
1 1.50927 1.51154 2.98873
1 1.52318 1.481 4.48946
1 1.5231 2.98245 0.00943999
1 1.48942 3.03335 1.50848
1 1.51619 3.0109 3.0085
1 1.53313 2.9815 4.50834
1 1.51163 4.48385 5.99809
1 1.46944 4.53398 1.49606
1 1.47275 4.51118 2.99745
1 1.493 4.48127 4.4968
1 3.00099 5.9947 0.0204724
1 2.9863 0.00415476 1.52021
1 2.98943 5.97614 3.02048
1 2.98277 -0.00915307 4.52032
1 3.01713 1.49342 5.98764
1 2.98187 1.50423 1.48756
1 3.0086 1.47636 2.98695
1 3.02315 1.49139 4.48765
1 3.02302 2.99482 5.98619
1 2.98848 3.00425 1.48564
1 3.01681 2.97734 2.98603
1 3.03251 2.99167 4.48596
1 3.01161 4.49455 0.0158187
1 2.9699 4.50365 1.51541
1 2.97194 4.47599 3.01539
1 2.99248 4.49136 4.51584
1 4.5027 0.0245547 0.00786946
1 4.48606 0.00393611 1.50843
1 4.49031 5.96775 3.00739
1 4.48451 0.0138267 4.50766
1 4.5169 1.52449 5.99473
1 4.4821 1.50489 1.49564
1 4.50971 1.4685 2.99407
1 4.52422 1.51372 4.49533
1 4.52355 3.02514 5.98689
1 4.48899 3.0048 1.48616
1 4.51645 2.96817 2.98752
1 4.53278 3.01384 4.48601
1 4.51221 4.52534 0.00166922
1 4.46927 4.50522 1.50091
1 4.47309 4.46674 3.00253
1 4.49245 4.51321 4.50221
65
Atoms. Timestep: 120
2 0.303965 0.0601529 0.650173
1 0.00152767 5.9966 5.99285
1 5.98411 0.0196182 1.49183
1 5.988 5.99819 2.99145
1 5.98643 0.00234013 4.49205
1 0.0164266 1.49564 0.0127894
1 5.98456 1.5205 1.51261
1 0.00951127 1.49986 3.01258
1 0.022857 1.50298 4.51306
1 0.0244368 2.99771 0.0180175
1 5.99023 3.01975 1.5175
1 0.0147631 2.99808 3.01742
1 0.032535 3.00314 4.51731
1 0.00829079 4.49557 5.97747
1 5.971 4.52068 1.47684
1 5.97558 4.49753 2.97649
1 5.99322 4.50262 4.47725
1 1.50078 5.9839 0.00247563
1 1.48409 0.0316017 1.5025
1 1.48766 0.00350471 3.0024
1 1.48655 5.98433 4.50171
1 1.51628 1.48389 5.99392
1 1.48312 1.53273 1.49435
1 1.50976 1.50192 2.99321
1 1.5229 1.4842 4.49349
1 1.52385 2.9835 0.00218199
1 1.49052 3.03321 1.50157
1 1.51352 3.00197 3.00297
1 1.53218 2.98525 4.50178
1 1.50856 4.4846 6.00142
1 1.47083 4.53362 1.49926
1 1.4745 4.50298 3.00021
1 1.49354 4.48508 4.49993
1 3.00062 5.99868 0.0212294
1 2.98432 0.00188889 1.52079
1 2.98699 5.98345 3.02174
1 2.98587 -0.0123756 4.52114
1 3.01697 1.49773 5.98521
1 2.98476 1.50018 1.4855
1 3.00966 1.48368 2.98462
1 3.02177 1.48736 4.48571
1 3.02409 2.99864 5.99588
1 2.99015 3.00161 1.49499
1 3.01282 2.98272 2.99531
1 3.03227 2.9871 4.4951
1 3.00855 4.4985 0.00939432
1 2.97073 4.501 1.50938
1 2.97488 4.48359 3.00932
1 2.99324 4.48781 4.50956
1 4.50223 0.0187652 0.00814118
1 4.48412 0.00437893 1.5087
1 4.4886 5.97323 3.00723
1 4.48766 0.011481 4.50851
1 4.51648 1.51924 5.99522
1 4.48337 1.50522 1.49516
1 4.50882 1.47348 2.99529
1 4.52305 1.51233 4.49667
1 4.52482 3.0194 5.98648
1 4.49074 3.00478 1.4862
1 4.51434 2.97411 2.98609
1 4.5323 3.01217 4.4857
1 4.50847 4.5194 0.0010377
1 4.4697 4.50524 1.50129
1 4.47632 4.47302 3.00205
1 4.49335 4.51157 4.50144
65
Atoms. Timestep: 130
2 0.296027 0.0460908 0.646015
1 5.8288e-06 5.99942 5.99266
1 5.98277 0.0203296 1.49193
1 5.9841 5.99867 2.99332
1 5.98878 0.00229516 4.4926
1 0.0159558 1.49941 0.0105447
1 5.98609 1.52128 1.51104
1 0.0100487 1.4985 3.0099
1 0.0217973 1.50255 4.51037
1 0.0243031 2.9997 0.0147172
1 5.99159 3.02054 1.51413
1 0.0104581 2.99909 3.01444
1 0.0311728 3.00148 4.51474
1 0.0052703 4.49915 5.98151
1 5.9725 4.51985 1.48092
1 5.97733 4.49814 2.98128
1 5.99504 4.50055 4.4808
1 1.50217 5.98533 0.000616454
1 1.48275 0.0306421 1.49971
1 1.48638 -0.00604444 2.99964
1 1.49012 5.98861 4.50055
1 1.51662 1.4857 5.99844
1 1.48649 1.53121 1.49795
1 1.50938 1.49362 2.99813
1 1.52202 1.48838 4.4982
1 1.52512 2.98581 -0.00403488
1 1.49206 3.03114 1.49511
1 1.51111 2.99464 2.99548
1 1.53088 2.98837 4.49567
1 1.50494 4.48474 6.00341
1 1.47184 4.53111 1.50332
1 1.47838 4.49372 3.00298
1 1.49383 4.48824 4.50336
1 3.00141 6.00249 0.021832
1 2.98196 -0.00114462 1.52166
1 2.98583 5.99075 3.02183
1 2.99046 -0.015502 4.52155
1 3.016 1.5029 5.98325
1 2.98677 1.49753 1.48351
1 3.0103 1.49047 2.98328
1 3.02164 1.48343 4.48346
1 3.0254 3.00207 6.00489
1 2.99221 2.99864 1.50478
1 3.01044 2.98937 3.00465
1 3.03182 2.98337 4.50445
1 3.00511 4.50211 0.00312095
1 2.97166 4.49829 1.50313
1 2.97882 4.49094 3.00319
1 2.99445 4.48364 4.50303
1 4.50011 0.0134329 0.00810475
1 4.48218 0.00546768 1.5084
1 4.48579 5.97982 3.00851
1 4.48945 0.00959256 4.50858
1 4.51601 1.51369 5.9964
1 4.48567 1.50501 1.49589
1 4.5089 1.47909 2.9969
1 4.52095 1.50967 4.49586
1 4.52517 3.01292 5.98597
1 4.49236 3.00489 1.48644
1 4.51141 2.9799 2.985
1 4.5314 3.00984 4.48598
1 4.50448 4.51274 0.00133629
1 4.47211 4.50476 1.5018
1 4.4782 4.48022 3.00037
1 4.49451 4.51 4.50039
65
Atoms. Timestep: 140
2 0.289293 0.0378667 0.640691
1 2.71144e-05 6.00243 5.99293
1 5.98081 0.0209889 1.49319
1 5.9826 5.99906 2.99404
1 5.9931 0.00121696 4.49305
1 0.0156081 1.50314 0.00828413
1 5.98839 1.52052 1.50831
1 0.00989364 1.49725 3.00765
1 0.0201651 1.50034 4.50785
1 0.0250751 3.0016 0.0110319
1 5.99397 3.0213 1.511
1 0.00641081 2.99976 3.011
1 0.0296176 3.00071 4.51133
1 0.00162967 4.503 5.98557
1 5.97354 4.51991 1.48538
1 5.98082 4.49919 2.98613
1 5.99599 4.50025 4.48521
1 1.50139 5.98743 -0.00153999
1 1.4811 0.0295193 1.49747
1 1.48403 -0.0150783 2.99739
1 1.49326 5.99271 4.49875
1 1.51597 1.48731 6.00325
1 1.48975 1.52864 1.50179
1 1.50908 1.48608 3.00258
1 1.52009 1.49259 4.50284
1 1.526 2.98799 -0.00997532
1 1.49414 3.02792 1.48929
1 1.50824 2.98671 2.98781
1 1.52991 2.99179 4.48943
1 1.5009 4.48638 6.00583
1 1.47345 4.52766 1.50681
1 1.48206 4.48481 3.00564
1 1.49521 4.4915 4.50672
1 3.00103 6.00621 0.0218535
1 2.98023 -0.00461817 1.52203
1 2.98372 5.99744 3.02139
1 2.99379 -0.0195471 4.52186
1 3.01505 1.50693 5.98207
1 2.98804 1.49612 1.4817
1 3.00987 1.49706 2.98228
1 3.0214 1.47991 4.48156
1 3.02566 3.00585 6.01344
1 2.9939 2.99546 1.51398
1 3.00855 2.99772 3.01377
1 3.03026 2.9807 4.51403
1 3.00128 4.50624 -0.00285809
1 2.97346 4.49558 1.49672
1 2.98167 4.4974 2.99699
1 2.99617 4.47962 4.49692
1 4.49965 0.00753355 0.00847981
1 4.48065 0.00569268 1.50827
1 4.4829 5.98671 3.00955
1 4.4919 0.0079484 4.50808
1 4.51574 1.50711 5.99781
1 4.48918 1.50475 1.49733
1 4.51004 1.48628 2.99733
1 4.51969 1.50695 4.49535
1 4.52518 3.00688 5.98541
1 4.49371 3.00542 1.48613
1 4.5076 2.98606 2.98567
1 4.52978 3.00726 4.48621
1 4.50119 4.50676 0.000939684
1 4.4747 4.50462 1.50074
1 4.48054 4.48649 2.9997
1 4.49556 4.50755 4.50025
65
Atoms. Timestep: 150
2 0.279237 0.0301451 0.637134
1 0.000999389 6.00536 5.99419
1 5.97874 0.0210948 1.49469
1 5.98256 5.99944 2.99342
1 5.99756 -0.000792031 4.49396
1 0.0150623 1.50607 0.00578503
1 5.99141 1.51964 1.50492
1 0.0093573 1.49852 3.00573
1 0.019009 1.49847 4.50558
1 0.0262191 3.00518 0.00727978
1 5.99641 3.02126 1.50765
1 0.00460086 2.99916 3.00716
1 0.028099 3.00027 4.50712
1 -0.00261393 4.50613 5.99016
1 5.97524 4.5208 1.49007
1 5.9855 4.49892 2.9902
1 5.99682 4.50017 4.49048
1 1.49912 5.98991 -0.0037429
1 1.47917 0.025552 1.49638
1 1.48073 -0.0220966 2.99573
1 1.49604 5.99574 4.49563
1 1.51476 1.48911 6.00763
1 1.49215 1.52484 1.50693
1 1.50982 1.47811 3.00651
1 1.51832 1.49591 4.50676
1 1.52586 2.98963 -0.016782
1 1.49615 3.02528 1.48352
1 1.50468 2.97742 2.9825
1 1.52866 2.99599 4.48312
1 1.49728 4.48975 6.00931
1 1.47631 4.52449 1.50928
1 1.48421 4.4776 3.00838
1 1.49751 4.49554 4.50934
1 2.99955 6.01 0.0209001
1 2.97899 -0.00733439 1.52126
1 2.98077 6.0043 3.02109
1 2.99619 -0.0232901 4.52171
1 3.01476 1.50967 5.98138
1 2.99044 1.49402 1.48063
1 3.00892 1.5039 2.98147
1 3.01927 1.47679 4.48088
1 3.02531 3.01 6.022
1 2.99573 2.99257 1.52217
1 3.0048 3.00537 3.0221
1 3.02777 2.97752 4.52268
1 2.99732 4.51041 -0.00874756
1 2.9757 4.49341 1.49088
1 2.98376 4.50359 2.99118
1 2.99743 4.47663 4.49122
1 4.50072 0.000828404 0.00930443
1 4.47926 0.00503776 1.50851
1 4.48088 5.99327 3.00904
1 4.49614 0.00534441 4.50808
1 4.51508 1.50038 5.99816
1 4.49251 1.50503 1.49777
1 4.51038 1.49369 2.99721
1 4.51905 1.50484 4.49736
1 4.52539 3.00135 5.98605
1 4.49555 3.00565 1.48587
1 4.5039 2.99309 2.98682
1 4.5278 3.00501 4.48612
1 4.49802 4.50113 -0.000501902
1 4.47591 4.505 1.49905
1 4.48459 4.49272 3.00031
1 4.49681 4.5044 4.50022
65
Atoms. Timestep: 160
2 0.259535 0.0215361 0.638957
1 0.00038642 6.00851 5.99523
1 5.97728 0.0206153 1.4952
1 5.98059 5.99925 2.9938
1 6.00023 -0.00200732 4.49537
1 0.0142507 1.50859 0.0030713
1 5.99465 1.52031 1.50242
1 0.00904069 1.50032 3.00332
1 0.0177062 1.49854 4.50297
1 0.0261788 3.00958 0.00334902
1 5.99825 3.02043 1.50321
1 0.00292596 2.99843 3.00299
1 0.0261365 2.99879 4.50282
1 -0.00655207 4.5084 5.99526
1 5.97813 4.52088 1.49518
1 5.98872 4.49849 2.99424
1 5.99845 4.49851 4.49543
1 1.49868 5.99232 -0.00573946
1 1.4775 0.0199955 1.49495
1 1.47847 -0.0287302 2.99429
1 1.49981 5.99865 4.49316
1 1.51396 1.49244 6.01114
1 1.49453 1.52055 1.51198
1 1.51051 1.47037 3.01049
1 1.5177 1.49887 4.51056
1 1.52537 2.99191 -0.0226707
1 1.49827 3.02173 1.47792
1 1.50114 2.96957 2.97841
1 1.52651 2.99974 4.4774
1 1.49435 4.49286 6.01235
1 1.47883 4.52104 1.51143
1 1.48705 4.4713 3.01157
1 1.49938 4.49944 4.5111
1 2.99907 6.01359 0.0193765
1 2.97761 -0.00884175 1.51962
1 2.97901 6.0114 3.02031
1 2.99951 -0.0256956 4.5201
1 3.01453 1.51278 5.98117
1 2.99453 1.49106 1.4811
1 3.00847 1.51065 2.9813
1 3.01644 1.47437 4.4815
1 3.02528 3.01371 6.02943
1 2.99799 2.99069 1.52914
1 3.00026 3.01076 3.0295
1 3.02539 2.97374 4.52924
1 2.99351 4.5133 -0.0142166
1 2.97783 4.49133 1.48604
1 2.98718 4.51031 2.98619
1 2.9982 4.47439 4.48606
1 4.50038 -0.00551777 0.00940469
1 4.47759 0.00473256 1.50877
1 4.47944 5.99995 3.00815
1 4.50058 0.00183128 4.50896
1 4.51387 1.49473 5.99763
1 4.49453 1.50552 1.49783
1 4.50923 1.50013 2.99781
1 4.51759 1.50245 4.49975
1 4.52544 2.99531 5.98791
1 4.4979 3.00511 1.48664
1 4.50086 3.0004 2.98741
1 4.52561 3.00272 4.48651
1 4.49401 4.49488 -0.00128274
1 4.47727 4.50554 1.49854
1 4.48843 4.50005 2.99985
1 4.49864 4.50173 4.49912
65
Atoms. Timestep: 170
2 0.226768 0.0123799 0.648239
1 -0.00159098 6.01206 5.9956
1 5.97635 0.0198771 1.49539
1 5.97725 5.9986 2.99603
1 6.00245 -0.00232294 4.49619
1 0.0133582 1.51131 0.000338416
1 5.99798 1.52129 1.50081
1 0.00914547 1.49969 3.00018
1 0.0154167 1.49853 4.50018
1 0.0249866 3.01264 -0.00127234
1 6.00009 3.01972 1.49796
1 -0.00108977 2.99869 2.99852
1 0.0235251 2.99683 4.49848
1 -0.00967219 4.51079 6.00003
1 5.98111 4.52016 1.50035
1 5.99062 4.49939 2.99951
1 6.00046 4.49671 4.49982
1 1.50001 5.99516 -0.00729253
1 1.47632 0.0154057 1.4926
1 1.47823 -0.0354642 2.99272
1 1.50444 6.00213 4.49256
1 1.51352 1.49672 6.01426
1 1.4974 1.51614 1.51525
1 1.50945 1.46443 3.01442