ITEM: TIMESTEP
0
ITEM: NUMBER OF ATOMS
65
ITEM: BOX BOUNDS pp pp pp
0.0000000000000000e+00 6.0000000000000000e+00
0.0000000000000000e+00 6.0000000000000000e+00
0.0000000000000000e+00 6.0000000000000000e+00
ITEM: ATOMS id type x y z fx fy fz
1 2 0.75 0.75 0.75 0 0 0
2 1 0 0 0 0.00988633 0.00988633 0.00988633
3 1 0 0 1.5 0.00988633 0.00988633 -0.00988633
4 1 0 0 3 0 0 0
5 1 0 0 4.5 0 0 0
6 1 0 1.5 0 0.00988633 -0.00988633 0.00988633
7 1 0 1.5 1.5 0.00988633 -0.00988633 -0.00988633
8 1 0 1.5 3 0 0 0
9 1 0 1.5 4.5 0 0 0
10 1 0 3 0 0 0 0
11 1 0 3 1.5 0 0 0
12 1 0 3 3 0 0 0
13 1 0 3 4.5 0 0 0
14 1 0 4.5 0 0 0 0
15 1 0 4.5 1.5 0 0 0
16 1 0 4.5 3 0 0 0
17 1 0 4.5 4.5 0 0 0
18 1 1.5 0 0 -0.00988633 0.00988633 0.00988633
19 1 1.5 0 1.5 -0.00988633 0.00988633 -0.00988633
20 1 1.5 0 3 0 0 0
21 1 1.5 0 4.5 0 0 0
22 1 1.5 1.5 0 -0.00988633 -0.00988633 0.00988633
23 1 1.5 1.5 1.5 -0.00988633 -0.00988633 -0.00988633
24 1 1.5 1.5 3 0 0 0
25 1 1.5 1.5 4.5 0 0 0
26 1 1.5 3 0 0 0 0
27 1 1.5 3 1.5 0 0 0
28 1 1.5 3 3 0 0 0
29 1 1.5 3 4.5 0 0 0
30 1 1.5 4.5 0 0 0 0
31 1 1.5 4.5 1.5 0 0 0
32 1 1.5 4.5 3 0 0 0
33 1 1.5 4.5 4.5 0 0 0
34 1 3 0 0 0 0 0
35 1 3 0 1.5 0 0 0
36 1 3 0 3 0 0 0
37 1 3 0 4.5 0 0 0
38 1 3 1.5 0 0 0 0
39 1 3 1.5 1.5 0 0 0
40 1 3 1.5 3 0 0 0
41 1 3 1.5 4.5 0 0 0
42 1 3 3 0 0 0 0
43 1 3 3 1.5 0 0 0
44 1 3 3 3 0 0 0
45 1 3 3 4.5 0 0 0
46 1 3 4.5 0 0 0 0
47 1 3 4.5 1.5 0 0 0
48 1 3 4.5 3 0 0 0
49 1 3 4.5 4.5 0 0 0
50 1 4.5 0 0 0 0 0
51 1 4.5 0 1.5 0 0 0
52 1 4.5 0 3 0 0 0
53 1 4.5 0 4.5 0 0 0
54 1 4.5 1.5 0 0 0 0
55 1 4.5 1.5 1.5 0 0 0
56 1 4.5 1.5 3 0 0 0
57 1 4.5 1.5 4.5 0 0 0
58 1 4.5 3 0 0 0 0
59 1 4.5 3 1.5 0 0 0
60 1 4.5 3 3 0 0 0
61 1 4.5 3 4.5 0 0 0
62 1 4.5 4.5 0 0 0 0
63 1 4.5 4.5 1.5 0 0 0
64 1 4.5 4.5 3 0 0 0
65 1 4.5 4.5 4.5 0 0 0
ITEM: TIMESTEP
10
ITEM: NUMBER OF ATOMS
65
ITEM: BOX BOUNDS pp pp pp
0.0000000000000000e+00 6.0000000000000000e+00
0.0000000000000000e+00 6.0000000000000000e+00
0.0000000000000000e+00 6.0000000000000000e+00
ITEM: ATOMS id type x y z fx fy fz
1 2 0.670456 0.642896 0.729912 0.0150989 0.0204284 0.00376511
2 1 -0.00067598 -0.00138262 -0.00208494 28.4994 -45.9683 17.5544
3 1 -0.000171159 0.00150304 1.49845 -20.7593 32.8178 6.46577
4 1 -0.000909951 -0.00146274 2.99948 22.9307 45.7421 -22.1248
5 1 -0.0050568 0.00127499 4.49876 51.8277 -0.303316 -1.59852
6 1 0.00268747 1.49689 0.00316924 -18.2416 38.1 -2.23723
7 1 -0.00254447 1.50343 1.50355 -34.1428 -45.634 -11.5727
8 1 0.00112242 1.49956 3.00305 -1.63481 -17.6229 0.571638
9 1 0.00267813 1.50204 4.50259 29.8936 -33.529 13.1126
10 1 0.00210666 2.99814 0.00322531 8.34337 -33.5673 10.4504
11 1 -0.00265657 3.00179 1.50318 24.395 26.2398 9.55533
12 1 0.0028844 2.99921 3.00388 6.2913 28.4312 -6.81111
13 1 0.00396678 3.00024 4.50407 12.8391 26.7348 -13.1301
14 1 0.0029501 4.49674 -0.00556952 6.82988 41.5315 17.8854
15 1 -0.00386913 4.50217 1.4949 -27.2106 -13.5812 -1.89838
16 1 -0.00605077 4.50105 2.99524 33.2192 -56.2492 -2.75385
17 1 -0.00106529 4.50047 4.49535 -1.32429 6.93027 -13.1859
18 1 1.50184 -0.00276843 0.0029711 -42.1659 21.6733 -25.8438
19 1 1.49919 0.00415454 1.50118 0.330773 15.845 25.6214
20 1 1.50074 0.00696294 3.00139 -18.3712 6.39953 15.2138
21 1 1.49761 -0.00454813 4.50276 -37.2671 1.88816 -15.4096
22 1 1.50247 1.49871 -0.00494398 2.37964 -31.9745 27.0157
23 1 1.49637 1.5055 1.49539 29.9027 -37.5471 -0.0243545
24 1 1.50089 1.50682 2.99575 -6.51744 2.61836 9.07186
25 1 1.50414 1.49622 4.49679 -29.6908 -18.1714 -36.1568
26 1 1.50312 2.99766 0.00620607 -13.2014 10.4817 -16.3406
27 1 1.49791 3.00389 1.50573 -1.14067 22.573 8.14042
28 1 1.50338 3.00686 3.0059 19.6998 9.04451 -8.76689
29 1 1.50425 2.99556 4.50537 2.11508 -1.09905 16.8329
30 1 1.50312 4.49745 -0.00180487 -4.11035 -0.332899 -35.4043
31 1 1.49502 4.50405 1.49713 22.1908 -0.678645 22.2604
32 1 1.49555 4.50763 2.99783 -14.9058 -18.6248 -26.0042
33 1 1.49844 4.4948 4.49645 -0.3757 17.5735 39.1749
34 1 3.00103 -0.00305561 0.00253911 -14.3387 -15.9218 -25.7738
35 1 2.99858 0.00319664 1.50188 11.0907 -26.8414 9.28868
36 1 3.00089 -0.0083433 3.00192 -24.3616 11.8045 -10.2455
37 1 2.99731 0.00137662 4.50116 -8.87669 8.45218 26.819
38 1 3.00247 1.49698 -0.000256701 -12.3406 -4.8331 19.1559
39 1 2.99763 1.50205 1.50081 -39.2088 25.4311 -27.2836
40 1 3.00011 1.49262 2.99974 23.3296 -14.0742 19.2385
41 1 3.00329 1.50152 4.50017 13.9316 -11.8761 -11.0832
42 1 3.00302 2.99663 -0.00821197 -15.1165 -7.37199 -11.8138
43 1 2.99833 3.00285 1.49122 -1.42509 -17.1174 12.6662
44 1 3.00532 2.99247 2.99161 -57.4522 -7.45794 -7.61801
45 1 3.00463 3.00073 4.49143 -4.91084 25.5785 6.7842
46 1 3.00295 4.49567 0.00552702 7.61097 27.8711 19.4638
47 1 2.99562 4.50226 1.50637 -14.2274 18.5283 -3.87935
48 1 2.99587 4.49164 3.0069 -17.1792 9.82626 -15.8812
49 1 2.99787 4.50188 4.50619 25.3911 -22.0085 0.306019
50 1 4.49909 0.00673207 -8.68537e-05 28.1211 -3.68264 35.1659
51 1 4.49884 0.00034479 1.5011 9.18526 14.3115 -17.6079
52 1 4.49922 -0.00646826 3.00091 19.9393 -17.232 9.83876
53 1 4.49634 0.00270332 4.50146 -5.58318 -6.04747 -27.3899
54 1 4.50148 1.50679 -0.00177755 28.0103 -10.3179 33.8349
55 1 4.49584 1.50137 1.50011 43.5352 -38.1259 -47.4643
56 1 4.50122 1.49156 2.99826 -14.98 47.5918 33.11
57 1 4.50354 1.5023 4.49898 -14.256 3.03926 -19.4336
58 1 4.50177 3.00606 -0.000262561 20.0944 13.6539 -33.361
59 1 4.49867 2.99942 1.49861 -21.7845 38.1926 19.5875
60 1 4.5029 2.99331 2.99902 31.1532 -10.936 -14.9555
61 1 4.50469 3.00216 4.49823 -10.1048 7.91002 28.8683
62 1 4.50336 4.50638 0.00114255 -10.5025 0.411516 -21.4007
63 1 4.49512 4.50044 1.50119 19.2971 -14.0321 -21.8612
64 1 4.49496 4.49418 2.99957 -1.14552 -19.6001 18.5576
65 1 4.49933 4.50262 4.49938 -23.5391 -4.88743 24.6997
ITEM: TIMESTEP
20
ITEM: NUMBER OF ATOMS
65
ITEM: BOX BOUNDS pp pp pp
0.0000000000000000e+00 6.0000000000000000e+00
0.0000000000000000e+00 6.0000000000000000e+00
0.0000000000000000e+00 6.0000000000000000e+00
ITEM: ATOMS id type x y z fx fy fz
1 2 0.59453 0.540689 0.71074 0.0295206 0.039683 0.00753488
2 1 0.000398242 -0.00419591 -0.00271187 8.19765 -30.4374 -0.805505
3 1 -0.00168292 0.00399385 1.49725 -4.74931 22.1948 2.78737
4 1 -6.87563e-05 -0.00142832 2.99743 2.90293 28.3156 -3.7902
5 1 -0.00725896 0.00187929 4.49729 18.5381 8.20569 2.02195
6 1 0.00475308 1.49463 0.00619477 -11.7103 29.5657 -0.0840811
7 1 -0.00578112 1.50491 1.50619 -27.6997 -23.233 -0.868075
8 1 0.00162882 1.49961 3.00617 6.35895 -23.733 -0.473982
9 1 0.00649311 1.50222 4.50613 17.5507 -10.5037 1.29139
10 1 0.00498351 2.99579 0.00713512 -0.999892 -28.7287 2.17207
11 1 -0.00404118 3.00405 1.50715 8.9517 22.1537 0.0142568
12 1 0.00748459 2.99879 3.00718 -13.7607 25.1379 -0.329364
13 1 0.00870994 3.00183 4.50724 3.41644 10.5393 -2.08298
14 1 0.00602072 4.4946 -0.0101477 4.9195 29.6974 5.94778
15 1 -0.00873465 4.50482 1.49001 -15.5849 -21.2688 -4.73749
16 1 -0.00995319 4.49977 2.98989 7.27542 -29.6694 4.38773
17 1 -0.00284002 4.50212 4.4901 7.99196 -8.47086 -5.40964
18 1 1.50086 -0.00470249 0.00422823 -9.23345 12.1407 -4.51089
19 1 1.49813 0.00857966 1.504 3.33155 12.5603 4.8145
20 1 1.50012 0.0139635 3.00421 -2.70031 5.98318 -2.1605
21 1 1.49349 -0.00893531 4.50407 -18.0491 0.133879 1.63309
22 1 1.50435 1.49584 -0.00874585 10.2665 -12.8276 13.4785
23 1 1.49311 1.50919 1.49167 27.0714 -16.6224 -10.8361
24 1 1.50183 1.51426 2.99131 -6.00436 -5.45754 12.7699
25 1 1.50713 1.49112 4.4918 -16.3348 -1.8745 -15.3762
26 1 1.50514 2.99529 0.0118515 0.600615 11.3656 -11.6442
27 1 1.49638 3.00843 1.5114 -7.73451 16.0846 9.56802
28 1 1.5071 3.01405 3.01173 16.7916 4.17765 -8.06903
29 1 1.5089 2.991 4.51132 -2.09533 0.898022 9.83126
30 1 1.50629 4.49568 -0.004738 -4.53966 -10.8226 -22.0626
31 1 1.49067 4.50894 1.49439 16.2868 -11.9053 21.8263
32 1 1.49048 4.51414 2.99534 -8.05099 -5.00625 -23.1718
33 1 1.49747 4.49094 4.4943 -7.78014 0.880113 23.5795
34 1 3.00062 -0.00673101 0.00405039 5.17754 -8.87963 -14.2123
35 1 2.99822 0.00547173 1.50357 -2.48409 -17.4414 12.8454
36 1 2.99989 -0.0159658 3.00398 -0.531979 4.71159 -12.8354
37 1 2.99284 0.00249844 4.50342 14.9782 12.3672 14.2507
38 1 3.0048 1.49306 -2.31809e-05 -10.8123 7.29068 13.9845
39 1 2.99416 1.50491 1.50057 -27.2754 16.501 -15.3623
40 1 3.00138 1.48438 2.99991 7.8983 -3.62243 14.8443
41 1 3.00653 1.50302 4.50043 14.6769 -11.9097 -13.6461
42 1 3.00508 2.99333 -0.0167725 -2.88513 -7.86165 -6.98945
43 1 2.99593 3.00554 1.48296 7.63284 -16.4021 7.81331
44 1 3.00756 2.98435 2.98319 -21.8319 1.07481 -7.45693
45 1 3.00865 3.00258 4.4829 1.59585 12.7421 7.01597
46 1 3.00612 4.49281 0.0124081 5.30002 9.55636 2.95369
47 1 2.99124 4.5047 1.51252 -15.4291 17.3027 -1.5939
48 1 2.98997 4.4841 3.01249 4.89709 -1.81604 -0.140339
49 1 2.99704 4.5029 4.51246 9.51354 -13.1025 -1.3828
50 1 4.50066 0.0129285 0.00132114 -4.13845 2.69802 18.144
51 1 4.49812 0.000456324 1.50204 3.89118 18.1101 -16.6311
52 1 4.49992 -0.0134773 3.00145 0.409792 -11.017 15.5447
53 1 4.49339 0.0049211 4.50201 -15.3162 0.110986 -17.0328
54 1 4.5043 1.51305 -0.00265089 12.0184 -4.12101 23.9923
55 1 4.49311 1.5012 1.49836 28.0243 -19.6469 -26.1104
56 1 4.50187 1.48602 2.99731 -8.06044 12.4886 24.6123
57 1 4.50715 1.50488 4.49815 -16.1122 -0.897135 -22.4151
58 1 4.50486 3.01286 -0.00183957 3.41229 4.6143 -17.5415
59 1 4.49627 3.00039 1.49748 -8.82057 19.6784 16.8905
60 1 4.5068 2.9865 2.9981 18.4557 -8.96794 -16.4681
61 1 4.50878 3.00485 4.49742 -3.0676 2.10052 17.1981
62 1 4.50628 4.51303 0.000754562 -5.78307 -3.40239 -3.29602
63 1 4.49067 4.50113 1.50063 14.7099 -17.8984 0.272457
64 1 4.49019 4.48618 3.0006 -4.02233 7.64788 0.474223
65 1 4.49747 4.50492 4.50053 -9.47505 -1.52124 2.55933
ITEM: TIMESTEP
30
ITEM: NUMBER OF ATOMS
65
ITEM: BOX BOUNDS pp pp pp
0.0000000000000000e+00 6.0000000000000000e+00
0.0000000000000000e+00 6.0000000000000000e+00
0.0000000000000000e+00 6.0000000000000000e+00
ITEM: ATOMS id type x y z fx fy fz
1 2 0.525696 0.448013 0.693379 0.0426593 0.0568552 0.0111239
2 1 0.0017085 -0.00775266 -0.00323474 -24.269 23.8103 -19.5382
3 1 -0.00339942 0.00700388 1.49613 18.1678 -16.2895 -4.2501
4 1 0.000893918 -0.000609142 2.99523 -21.1847 -25.9448 19.3171
5 1 -0.00884904 0.00260878 4.49586 -40.039 7.46331 3.98118
6 1 0.00646804 1.49313 0.00916118 10.2391 -16.1273 2.75705
7 1 -0.00965669 1.50577 1.50872 13.1637 29.1214 11.0298
8 1 0.00233717 1.49921 3.0092 5.26334 -1.11871 -0.124046
9 1 0.0107964 1.50205 4.50972 -18.0213 26.2984 -13.5137
10 1 0.00785663 2.99283 0.0111302 -9.73951 11.7955 -9.85379
11 1 -0.00514619 3.00686 1.51114 -18.0199 -9.47408 -10.1779
12 1 0.0118699 2.99897 3.01038 -16.743 -9.81042 7.20698
13 1 0.0135797 3.00374 4.51029 -11.2121 -19.3055 12.3201
14 1 0.00913722 4.49323 -0.0144544 -3.3819 -19.5268 -14.2529
15 1 -0.0139378 4.50697 1.48506 15.5817 -3.0304 -1.21249
16 1 -0.013521 4.49759 2.98469 -29.1655 35.9624 5.9334
17 1 -0.00441334 4.50358 4.48476 6.62255 -14.3102 9.8603
18 1 1.49953 -0.00630775 0.00524451 37.62 -13.7307 22.6319
19 1 1.49711 0.0131993 1.50695 2.17395 -5.73272 -22.1903
20 1 1.4994 0.0209953 3.00699 16.1795 -3.87597 -18.0982
21 1 1.48892 -0.0132543 4.50523 25.5342 -1.06186 18.2813
22 1 1.50641 1.49259 -0.0120816 5.54919 23.8013 -16.9256
23 1 1.49051 1.51234 1.4879 -9.07566 26.0852 -8.99055
24 1 1.50268 1.52135 2.9873 3.26299 -4.97324 0.877154
25 1 1.50965 1.48601 4.48639 18.3114 16.9729 25.7857
26 1 1.50717 2.99319 0.0169769 14.1735 -2.25885 7.48391
27 1 1.49474 3.01339 1.51712 -5.08548 -11.1787 -0.483193
28 1 1.51125 3.02114 3.01732 -8.17564 -6.37932 1.44947
29 1 1.51352 2.98656 4.5173 -3.50705 1.74284 -9.07001
30 1 1.50934 4.49368 -0.00810462 1.04694 -7.38752 19.5108
31 1 1.48682 4.51361 1.49222 -10.2661 -9.77742 -6.21061
32 1 1.48524 4.52029 2.99235 10.4928 15.9832 9.63732
33 1 1.49635 4.48726 4.49284 -5.09745 -17.9863 -22.4793
34 1 3.00029 -0.0105824 0.00519116 18.6463 10.2552 15.6092
35 1 2.99783 0.00721648 1.50557 -13.5022 13.2572 0.421228
36 1 2.9987 -0.0232615 3.00578 26.0743 -7.243 0.396696
37 1 2.9887 0.00384942 4.50605 20.6208 0.318412 -16.6445
38 1 3.00688 1.48938 0.000501005 4.46142 10.869 -8.41148
39 1 2.99007 1.5081 1.4999 18.6666 -12.5529 16.0609
40 1 3.00287 1.47628 3.00037 -19.684 10.5605 -8.20981
41 1 3.01002 1.50419 4.50033 -2.89588 3.12498 -0.0352007
42 1 3.00701 2.98999 -0.0252235 13.8045 2.10763 6.45397
43 1 2.99366 3.00784 1.47516 7.74748 3.8371 -6.16565
44 1 3.00889 2.97638 2.97482 44.3448 10.2203 2.07385
45 1 3.01261 3.00473 4.47474 6.10422 -16.9791 -0.980838
46 1 3.00939 4.49028 0.0192835 -4.21629 -21.9481 -17.8942
47 1 2.98654 4.50745 1.51849 2.44116 -4.92671 2.42767
48 1 2.98414 4.47672 3.01784 21.3397 -12.8492 16.3202
49 1 2.99651 4.50344 4.51855 -20.0119 12.9562 -1.6478
50 1 4.50225 0.0190222 0.00324189 -32.3096 6.41779 -22.105
51 1 4.49748 0.000979534 1.50261 -6.74178 -1.07141 4.92443
52 1 4.50072 -0.0207349 3.00232 -21.4881 9.72269 2.85756
53 1 4.49017 0.00707585 4.50211 -5.98349 7.2006 14.3897
54 1 4.50745 1.51907 -0.00290052 -19.9838 7.11841 -17.2328
55 1 4.49111 1.50048 1.49587 -22.7111 24.1566 29.981
56 1 4.50225 1.48102 2.99702 10.8523 -39.6521 -15.8222
57 1 4.51033 1.50743 4.49684 2.59511 -4.37814 3.14834
58 1 4.50809 3.01969 -0.0039193 -18.4312 -10.6688 22.5467
59 1 4.49361 3.00192 1.4968 15.4079 -24.4278 -8.56686
60 1 4.51116 2.97963 2.99675 -19.0135 4.2498 3.70945
61 1 4.51271 3.00759 4.49702 8.46589 -6.60672 -18.1938
62 1 4.50896 4.51951 0.000171654 6.73736 -3.73927 21.2019
63 1 4.48658 4.50142 1.50003 -7.7995 0.686052 21.8195
64 1 4.48546 4.47835 3.0017 -2.23043 26.8769 -18.0991
65 1 4.49533 4.50715 4.5018 18.2509 3.29469 -25.0367
ITEM: TIMESTEP
40
ITEM: NUMBER OF ATOMS
65
ITEM: BOX BOUNDS pp pp pp
0.0000000000000000e+00 6.0000000000000000e+00
0.0000000000000000e+00 6.0000000000000000e+00
0.0000000000000000e+00 6.0000000000000000e+00
ITEM: ATOMS id type x y z fx fy fz
1 2 0.467123 0.369004 0.678682 0.0539219 0.0712435 0.0142706
2 1 0.00131753 -0.0103088 -0.00517588 -11.5753 45.2617 -0.732993
3 1 -0.0039084 0.00942698 1.49476 7.25721 -32.4612 -3.67617
4 1 8.64854e-05 -0.00082377 2.99453 -3.62217 -42.0215 6.13858
5 1 -0.0128102 0.00415151 4.49479 -26.5852 -12.051 -2.14787
6 1 0.00848025 1.49145 0.0121687 17.9419 -41.7727 -0.220806
7 1 -0.0132938 1.50814 1.51196 41.432 33.6147 1.51058
8 1 0.00380529 1.498 3.01199 -9.16891 30.9422 1.20948
9 1 0.0142682 1.50355 4.5122 -28.0837 14.8719 -2.90728
10 1 0.00987698 2.99007 0.0143793 1.10296 40.2446 -4.59567
11 1 -0.0073159 3.00958 1.51421 -12.5141 -30.9758 -0.720652
12 1 0.0143335 2.99933 3.01402 14.8276 -35.7032 1.60237
13 1 0.0176479 3.00444 4.51409 -6.04311 -16.0176 3.77693
14 1 0.0119961 4.49144 -0.0194309 -7.22269 -43.2672 -9.2898
15 1 -0.0182625 4.50819 1.47996 21.8524 30.0878 7.60904
16 1 -0.0189339 4.49713 2.98032 -9.57979 46.7667 -6.17373
17 1 -0.00511266 4.50353 4.48016 -11.2455 13.5708 8.27404
18 1 1.50086 -0.00851024 0.00771266 13.3952 -18.0614 7.0434
19 1 1.49631 0.0176314 1.50815 -4.59042 -15.5262 -8.62107
20 1 1.49992 0.0274727 3.00812 3.61399 -11.8171 3.89533
21 1 1.48587 -0.0174451 4.50769 27.8588 1.37952 -2.44829
22 1 1.50919 1.49077 -0.0160142 -14.4591 19.5065 -18.0813
23 1 1.48814 1.51689 1.48343 -38.7452 26.4325 13.6483
24 1 1.50356 1.52718 2.98415 6.4994 9.69602 -19.3467
25 1 1.51294 1.48242 4.48274 23.2798 3.91364 25.4245
26 1 1.51034 2.99132 0.0217672 0.000842462 -15.8761 19.9033
27 1 1.49253 3.01794 1.52254 11.834 -26.0222 -14.3024
28 1 1.51534 3.02734 3.02238 -25.0075 -4.79683 6.89569
29 1 1.5177 2.98252 4.5223 2.88509 -1.95823 -14.4416
30 1 1.51217 4.49073 -0.0104116 5.51874 15.0378 30.5951
31 1 1.48284 4.51711 1.49049 -24.7167 14.2631 -29.7493
32 1 1.48068 4.52691 2.98957 15.7824 4.89634 34.9883
33 1 1.49459 4.48246 4.49067 10.6603 -2.30849 -35.0078
34 1 3.00149 -0.0137164 0.00711144 -4.49282 14.351 21.2318
35 1 2.99624 0.00927315 1.50802 3.04882 24.7736 -17.1358
36 1 2.99926 -0.0304821 3.00726 2.66325 -8.77109 17.1677
37 1 2.98676 0.00543205 4.50788 -19.7374 -18.5326 -21.2429
38 1 3.00892 1.48713 0.000640061 14.4887 -9.65266 -19.7098
39 1 2.98672 1.51051 1.49985 37.9415 -21.8043 22.3764
40 1 3.00318 1.46957 3.00049 -12.0354 5.78584 -21.6063
41 1 3.01361 1.50501 4.49965 -18.6862 16.0246 18.5931
42 1 3.00986 2.98684 -0.0326161 5.096 10.8488 10.1363
43 1 2.99231 3.00978 1.4679 -11.3771 22.6102 -10.6942
44 1 3.01255 2.96964 2.9671 36.8136 2.94439 12.4009
45 1 3.01699 3.00579 4.46746 -1.62375 -18.2136 -8.8565
46 1 3.01241 4.48666 0.0244114 -8.28097 -14.2748 -6.02582
47 1 2.98165 4.51009 1.52412 22.9763 -26.644 1.85038
48 1 2.98031 4.46893 3.02395 -6.58777 2.08596 0.753047
49 1 2.99482 4.50428 4.52399 -14.2434 19.2632 1.20507
50 1 4.50127 0.0253313 0.0040124 2.52816 -3.41279 -27.2713
51 1 4.4964 0.00209223 1.50304 -5.84822 -26.9768 24.635
52 1 4.49994 -0.0273299 3.00388 -3.36984 17.3622 -21.3994
53 1 4.48625 0.00964689 4.50282 18.9072 1.17485 23.9235
54 1 4.50939 1.52517 -0.00355682 -17.6386 5.70369 -35.1694
55 1 4.48833 1.501 1.49481 -40.3802 28.5561 40.835
56 1 4.50305 1.47363 2.99641 14.1968 -18.491 -35.4319
57 1 4.51306 1.50959 4.49507 23.5694 0.404815 29.899
58 1 4.51002 3.02551 -0.0049691 -6.69339 -8.09728 25.677
59 1 4.49194 3.00223 1.49607 12.3567 -28.7199 -24.7961
60 1 4.51454 2.97309 2.99499 -26.6175 12.6308 23.939
61 1 4.51706 3.00979 4.49583 4.71039 -4.01362 -25.3434
62 1 4.51175 4.52524 0.00108072 9.48154 4.49467 6.03294
63 1 4.48245 4.50114 1.50116 -19.4213 26.5242 -0.292361
64 1 4.48072 4.47316 3.00141 1.25262 -10.3872 -2.94074
65 1 4.49428 4.50953 4.50119 14.3656 2.53235 -2.80587
ITEM: TIMESTEP
50
ITEM: NUMBER OF ATOMS
65
ITEM: BOX BOUNDS pp pp pp
0.0000000000000000e+00 6.0000000000000000e+00
0.0000000000000000e+00 6.0000000000000000e+00
0.0000000000000000e+00 6.0000000000000000e+00
ITEM: ATOMS id type x y z fx fy fz
1 2 0.421488 0.307013 0.667381 0.0534781 0.0412187 0.00125202
2 1 0.000484068 5.98869 5.99271 15.6806 8.56196 23.8446
3 1 5.99578 0.010954 1.49343 -14.2476 -7.84692 -0.120987
4 1 5.99896 5.99777 2.99425 15.5277 -0.333047 -14.9842
5 1 5.98277 0.00535937 4.49383 21.8934 -17.0676 -7.91352
6 1 0.0109068 1.48911 0.014898 0.777433 -14.5378 -4.992
7 1 5.9844 1.51135 1.51498 17.9731 -5.31356 -9.66559
8 1 0.00497417 1.49732 3.01453 -7.01738 25.134 -0.784332
9 1 0.0166001 1.50535 4.51417 0.412392 -16.9401 13.9107
10 1 0.0117879 2.98854 0.0171632 10.6908 19.1292 8.20543
11 1 5.99029 3.01151 1.51695 9.97845 -14.0713 9.59395
12 1 0.0164431 2.99896 3.0175 25.3611 -14.9344 -6.2343
13 1 0.0211942 3.00454 4.51783 9.51213 9.45265 -11.5017
14 1 0.0142798 4.48888 5.97566 -0.81733 -11.6462 10.382
15 1 5.97824 4.50998 1.47549 0.748392 26.7262 5.20266
16 1 5.97575 4.4983 2.97628 23.9842 -8.28703 -9.35433
17 1 5.99404 4.50366 4.47622 -13.5668 24.2441 -5.15019
18 1 1.50272 5.98884 0.0100844 -28.9277 2.48326 -19.0141
19 1 1.49535 0.0217168 1.50865 -6.03119 -7.98278 17.1772
20 1 1.50042 0.0321437 3.00891 -10.2961 0.639083 20.9295
21 1 1.48406 5.97905 4.50987 -6.31804 0.0123717 -21.3679
22 1 1.51151 1.48965 5.98033 -15.7033 -12.4661 4.36142
23 1 1.48513 1.52216 1.47971 -20.8514 -9.03591 21.485
24 1 1.50452 1.53223 2.98117 -1.16826 5.06258 -13.5423
25 1 1.51662 1.47956 4.4807 -2.8912 -13.9466 -10.1921
26 1 1.51359 2.9891 0.0262021 -13.9897 -8.21685 4.88386
27 1 1.49073 3.02146 1.52648 13.4959 -6.09745 -11.5044
28 1 1.51837 3.03228 3.02615 -5.98311 1.7096 7.38564
29 1 1.5217 2.97889 4.52588 4.53296 -1.62479 -4.4219
30 1 1.51471 4.48813 5.98848 1.81543 18.1942 3.61727
31 1 1.47842 4.52053 1.48863 -5.96588 22.9142 -15.1532
32 1 1.47729 4.53233 2.98834 -2.71726 -14.0552 13.0316
33 1 1.49319 4.47797 4.48799 11.8396 18.6049 -0.193265
34 1 3.00275 5.98425 0.00972822 -26.3187 -1.76897 -1.00767
35 1 2.99455 0.011459 1.51021 16.726 6.32969 -13.4779
36 1 2.99995 5.96316 3.00912 -31.4751 -1.04896 13.0741
37 1 2.98486 0.00604409 4.50915 -37.8032 -13.096 1.97229
38 1 3.01114 1.48531 5.99994 5.74859 -17.3527 -5.74586
39 1 2.98449 1.51205 1.50004 10.6579 -6.71462 0.348789
40 1 3.0031 1.46418 2.99975 15.2678 -0.836591 -8.73379
41 1 3.01669 1.50572 4.49905 -11.5836 7.22643 13.8499
42 1 3.01292 2.98455 5.96182 -13.2203 5.22799 2.50769
43 1 2.99087 3.01173 1.46199 -16.1658 14.5673 -1.4272
44 1 3.01731 2.96457 2.96134 -27.1554 -13.1083 7.70888
45 1 3.02119 3.00587 4.4616 -7.22455 4.74289 -4.06799
46 1 3.01485 4.4832 0.0282433 -0.795332 14.5536 12.8549
47 1 2.97763 4.51152 1.52878 15.0939 -15.8328 -1.79707
48 1 2.97682 4.46229 3.02916 -26.5418 19.0651 -17.0132
49 1 2.99275 4.50517 4.52837 12.5005 -0.50252 2.64039
50 1 4.50002 0.0308896 0.00396049 39.9645 -11.2377 3.23141
51 1 4.49506 0.00260384 1.50404 2.90467 -17.9788 13.6202
52 1 4.49863 5.96729 3.00504 25.8484 1.18634 -20.6306
53 1 4.48292 0.0121847 4.50409 23.3342 -8.96991 3.49356
54 1 4.51069 1.53065 5.995 8.68622 -3.95101 -5.25233
55 1 4.48478 1.50235 1.49526 -6.88873 -5.21865 -6.15664
56 1 4.50454 1.46623 2.99496 -6.93113 28.7243 -6.79181
57 1 4.51618 1.51144 4.49396 13.5704 7.53916 18.4732
58 1 4.51156 3.03023 5.99466 16.306 5.31067 -8.85428
59 1 4.49075 3.00172 1.49452 -6.73418 5.99876 -4.83954
60 1 4.5167 2.9674 2.9938 6.09469 6.24255 10.011
61 1 4.5214 3.01166 4.49381 -7.3129 2.88654 3.92744
62 1 4.51454 4.53023 0.00237242 -2.01639 8.00535 -19.7033
63 1 4.47827 4.5015 1.5023 -8.29671 17.7183 -22.1053
64 1 4.47616 4.46853 3.00085 6.46881 -35.2471 17.5775
65 1 4.4938 4.51185 4.50041 -10.4937 -0.966185 24.3913
ITEM: TIMESTEP
60
ITEM: NUMBER OF ATOMS
65
ITEM: BOX BOUNDS pp pp pp
0.0000000000000000e+00 6.0000000000000000e+00
0.0000000000000000e+00 6.0000000000000000e+00
0.0000000000000000e+00 6.0000000000000000e+00
ITEM: ATOMS id type x y z fx fy fz
1 2 0.389042 0.256519 0.658696 0.051233 0.0124901 0.0221528
2 1 0.00104549 5.98827 5.99226 10.4916 -36.5788 7.88435
3 1 5.99419 0.0123037 1.49251 -7.21396 24.8546 -0.186966
4 1 5.99909 5.99683 2.99283 -0.429638 37.7631 -4.82823
5 1 5.98099 0.00526247 4.49267 23.0418 7.83121 -1.67182
6 1 0.0130626 1.48696 0.0168474 -17.3778 31.2586 -2.31704
7 1 5.98326 1.51348 1.5166 -32.6335 -26.1025 -0.619578
8 1 0.00536498 1.49806 3.01661 12.0606 -17.602 -4.24488
9 1 0.0187235 1.50539 4.51651 28.3557 -10.7658 5.7866
10 1 0.0144521 2.98828 0.0200662 -0.0944543 -27.3073 5.37968
11 1 5.98909 3.01285 1.51997 9.57392 21.8426 1.28008
12 1 0.0195812 2.99801 3.02004 -6.30959 27.4038 -3.48835
13 1 0.0249645 3.00535 4.52029 7.89491 13.4765 -5.05334
14 1 0.0159156 4.48666 5.97219 6.8185 34.3243 12.0407
15 1 5.97487 4.51313 1.47219 -14.7234 -21.4756 -8.05722
16 1 5.97306 4.49871 2.97224 9.14566 -46.9409 6.426
17 1 5.99236 4.50529 4.47263 11.4213 -11.8117 -8.05985
18 1 1.50214 5.98664 0.0103639 -13.6698 17.2969 -6.28378
19 1 1.49387 0.025366 1.50992 3.31233 5.40319 8.16483
20 1 1.49946 0.034585 3.01063 -0.935339 15.8571 -2.53058
21 1 1.48203 5.97652 4.51001 -25.7427 -3.2949 -1.5749
22 1 1.51258 1.48762 5.97847 11.5577 -19.8773 13.3684
23 1 1.48172 1.52613 1.47832 28.1843 -25.4227 -3.96514
24 1 1.50548 1.53583 2.97846 -5.65627 -17.2432 17.2361
25 1 1.51942 1.47651 4.47887 -19.7636 -4.71545 -24.5524
26 1 1.51563 2.98654 0.0290735 -2.35333 14.2045 -22.5988
27 1 1.49001 3.02446 1.52811 -8.9747 25.0476 8.04624
28 1 1.52021 3.03531 3.02814 22.3799 0.558325 2.48498
29 1 1.52565 2.97601 4.52771 -3.40038 4.30172 7.89116
30 1 1.51672 4.48688 5.988 -4.68587 -11.8497 -21.3835
31 1 1.47432 4.52495 1.48691 22.4737 -5.18808 22.3558
32 1 1.47445 4.5347 2.98855 -19.8728 -5.11787 -30.9589
33 1 1.49284 4.47567 4.48651 -10.2812 6.28264 31.894
34 1 3.00226 5.98312 0.0120938 -0.921596 -14.4551 -18.3667
35 1 2.99393 0.0128044 1.5118 -1.6013 -17.1051 10.6561
36 1 2.99844 5.95899 3.01168 -10.3094 9.98052 -10.2765
37 1 2.98111 0.00507337 4.51091 13.7066 15.9505 18.2197
38 1 3.01337 1.4832 5.99864 -10.7586 9.32452 14.2034
39 1 2.98269 1.51296 1.49934 -24.7251 9.56761 -17.6585
40 1 3.00406 1.46026 2.99823 15.3032 0.942155 15.229
41 1 3.01892 1.50594 4.49866 10.8429 -13.6451 -13.1918
42 1 3.01498 2.98356 5.95882 -6.90466 -8.75428 -4.69139
43 1 2.98864 3.0134 1.45866 8.52928 -14.4165 10.8631
44 1 3.01969 2.961 2.95859 -45.1377 -11.4338 -9.20291
45 1 3.0245 3.00574 4.45819 0.100763 14.2275 8.76107
46 1 3.01663 4.48196 0.0314022 8.02908 16.0594 5.68307
47 1 2.9749 4.51149 1.53159 -17.4984 20.296 -3.30816
48 1 2.97223 4.45872 3.03151 4.33158 5.63617 -3.91479
49 1 2.99187 4.50512 4.53124 15.4318 -17.7092 -1.74582
50 1 4.50142 0.0344209 0.00450701 4.12587 -1.1517 23.0257
51 1 4.49388 0.00211065 1.5056 5.16242 21.7253 -18.7063
52 1 4.49851 5.96295 3.00508 11.5359 -14.9164 12.7903
53 1 4.48144 0.0139232 4.50513 -9.42336 -5.29494 -17.2713
54 1 4.51261 1.53439 5.99368 15.3737 -5.4462 30.9053
55 1 4.48187 1.50301 1.49531 30.4998 -23.5789 -42.1302
56 1 4.50586 1.46234 2.99349 -20.9713 16.8186 31.9986
57 1 4.51971 1.51333 4.49399 -20.8267 3.27996 -20.2221
58 1 4.51419 3.03411 5.99344 9.66086 6.84997 -25.2017
59 1 4.48914 3.00204 1.49248 -8.51028 24.231 25.1138
60 1 4.51869 2.96303 2.99325 26.6053 -6.00282 -23.806
61 1 4.5249 3.01357 4.49204 -5.9972 2.99916 24.3338
62 1 4.51666 4.5344 0.00229163 -11.9795 -3.7225 -11.1749
63 1 4.47446 4.50293 1.50164 11.0392 -21.4645 2.76774
64 1 4.47256 4.46251 3.00161 7.91468 6.80625 4.1518
65 1 4.49271 4.51365 4.50146 -15.2725 -2.02282 4.28097
ITEM: TIMESTEP
70
ITEM: NUMBER OF ATOMS
65
ITEM: BOX BOUNDS pp pp pp
0.0000000000000000e+00 6.0000000000000000e+00
0.0000000000000000e+00 6.0000000000000000e+00
0.0000000000000000e+00 6.0000000000000000e+00
ITEM: ATOMS id type x y z fx fy fz
1 2 0.366177 0.209305 0.654075 0.014837 0.0197428 0.00911958
2 1 0.00209916 5.98754 5.99265 -11.2879 -31.924 -24.123
3 1 5.99214 0.0141861 1.49181 10.2948 25.2029 1.66566
4 1 5.99888 5.99726 2.99122 -14.1908 21.5098 13.614
5 1 5.98084 0.00493968 4.49164 -7.09065 24.5099 9.19587
6 1 0.0142957 1.48633 0.0179324 -9.7449 37.7327 5.54242
7 1 5.98179 1.51466 1.51738 -41.2371 -11.8148 8.21614
8 1 0.00616419 1.49902 3.0178 7.33004 -40.2169 -1.029
9 1 0.0213876 1.50488 4.51842 14.5765 9.37154 -13.7361
10 1 0.0171445 2.98832 0.0225342 -12.6956 -39.9715 -7.00925
11 1 5.98853 3.01448 1.5224 -3.80873 30.0765 -8.78317
12 1 0.0221423 2.99775 3.02171 -27.9027 32.1703 2.85357
13 1 0.0285668 3.00634 4.52175 -8.61763 -1.94266 9.83117
14 1 0.0169391 4.48623 5.97028 3.38492 35.4407 -3.92038
15 1 5.97191 4.5157 1.46972 -10.9412 -43.8331 -7.59614
16 1 5.97176 4.49739 2.96933 -19.207 -14.7713 14.0776
17 1 5.99121 4.50632 4.46992 19.7021 -33.0325 0.392914
18 1 1.50073 5.98522 0.00970059 23.9588 7.32549 13.2719
19 1 1.49228 0.0282643 1.51079 8.97548 15.5423 -12.1331
20 1 1.49787 0.0352051 3.01154 6.64382 -2.54338 -23.5517
21 1 1.47982 5.97487 4.50919 -7.46466 3.27063 22.0462
22 1 1.5136 1.48505 5.97834 22.2463 2.35477 7.35364
23 1 1.47956 1.52857 1.47874 44.1101 -6.20345 -27.3547
24 1 1.50647 1.53569 2.97776 -0.208408 -7.40823 24.2146
25 1 1.52114 1.47435 4.47752 -9.37908 11.2947 -1.88374
26 1 1.51715 2.98457 0.0285353 12.2855 17.4585 -17.6366
27 1 1.48931 3.02801 1.52761 -18.6353 19.8393 15.6046
28 1 1.52161 3.03521 3.02846 14.8617 1.48879 -14.6412
29 1 1.52887 2.97472 4.52737 -6.10328 1.36909 12.7182
30 1 1.51778 4.48579 5.9883 -4.22629 -26.6114 -20.751
31 1 1.47178 4.52917 1.48663 17.972 -30.5004 31.6649
32 1 1.47138 4.53448 2.9887 -2.04822 6.28781 -27.9881
33 1 1.49249 4.47503 4.48721 -17.2889 -15.1151 19.4756
34 1 3.00134 5.98285 0.0138403 29.1581 -4.87625 -9.93115
35 1 2.99322 0.0127412 1.51352 -18.9667 -21.3325 21.2404
36 1 2.99602 5.95804 3.01418 32.3054 13.2348 -21.3382
37 1 2.97833 0.00357272 4.51339 50.357 22.2794 9.42799
38 1 3.0151 1.48251 5.99713 -13.4185 24.5792 13.5741
39 1 2.98112 1.51271 1.49751 -30.1103 17.7797 -13.5824
40 1 3.00565 1.45907 2.9964 -8.97927 -5.32497 20.9714
41 1 3.0206 1.50475 4.49737 20.6965 -15.595 -22.7782
42 1 3.01652 2.98373 5.95912 12.5893 -10.128 -5.45215
43 1 2.98705 3.01371 1.45887 22.3842 -27.5236 12.6907
44 1 3.01925 2.95918 2.95886 7.84625 13.7045 -11.6482
45 1 3.0272 3.00489 4.45837 7.14542 3.41966 10.2114
46 1 3.01776 4.48275 0.032588 4.25665 -5.67532 -8.08963
47 1 2.97243 4.51126 1.53204 -27.1699 29.6167 -1.34693
48 1 2.96883 4.45818 3.03142 30.1738 -17.0336 12.4866
49 1 2.99183 4.50362 4.53199 -4.73444 -11.2186 -6.63876
50 1 4.50334 0.0358426 0.0057768 -42.5381 12.8236 11.346
51 1 4.49273 0.00215209 1.50662 -0.0948826 32.8633 -27.4175
52 1 4.49869 5.95964 3.00511 -25.3603 -6.93726 33.1136
53 1 4.48097 0.0148578 4.50571 -33.7802 8.16023 -16.7217
54 1 4.51471 1.53608 5.99353 -0.029421 0.164094 22.3041
55 1 4.48044 1.50303 1.49396 28.6543 -10.2527 -13.705
56 1 4.50617 1.46071 2.99322 2.15368 -17.1128 25.8259
57 1 4.52216 1.51509 4.49425 -27.7477 -10.7376 -33.5782
58 1 4.51723 3.03647 5.99135 -12.1733 -3.21288 -2.4131
59 1 4.48778 3.00314 1.49117 0.728435 8.51549 15.6366
60 1 4.52077 2.96033 2.9919 3.19473 -11.6033 -21.5513
61 1 4.52763 3.01516 4.49089 5.84182 0.0848301 8.16519
62 1 4.51747 4.53671 0.00151019 -4.43171 -14.4031 17.007
63 1 4.47137 4.50385 1.50104 20.8702 -31.1082 22.0602
64 1 4.47087 4.45816 3.00275 -6.56831 40.8292 -16.3802
65 1 4.49139 4.51478 4.50262 3.46889 -0.355914 -23.0994
ITEM: TIMESTEP
80
ITEM: NUMBER OF ATOMS
65
ITEM: BOX BOUNDS pp pp pp
0.0000000000000000e+00 6.0000000000000000e+00
0.0000000000000000e+00 6.0000000000000000e+00
0.0000000000000000e+00 6.0000000000000000e+00
ITEM: ATOMS id type x y z fx fy fz
1 2 0.347174 0.166869 0.651727 0.0201982 0.0306469 0.0101881
2 1 0.00177664 5.98707 5.99197 -3.78566 13.2281 -18.6411
3 1 5.99094 0.0163423 1.49111 4.48457 -4.74971 8.44642
4 1 5.99657 5.99816 2.99112 8.15558 -20.4064 1.81144
5 1 5.98 0.00555449 4.49129 -7.35975 0.585398 8.36053
6 1 0.0149798 1.48759 0.0183748 11.2933 -3.56967 5.94703
7 1 5.97975 1.51619 1.51811 7.85681 5.78544 -3.20141
8 1 0.00758208 1.49854 3.01794 -15.9443 -7.03212 6.47751
9 1 0.023687 1.50542 4.51859 -20.7127 1.73905 -10.8665
10 1 0.0187069 2.9881 0.0235474 -0.962274 -0.751923 -6.38402
11 1 5.98768 3.01675 1.52318 -2.11912 -1.18838 -2.00721
12 1 0.0220579 2.9986 3.02277 -5.38307 -7.76063 2.28712
13 1 0.0308481 3.00627 4.52301 -10.6758 -7.52232 4.70785
14 1 0.0171363 4.48755 5.96927 -6.6417 -7.7655 -11.825
15 1 5.96999 4.51615 1.46815 0.583986 0.132103 9.01939