LAMMPS DATA file

64 atoms

1 atom types

0.000000 10.862000 xlo xhi
0.000000 10.862000 ylo yhi
0.000000 10.862000 zlo zhi

Masses

1 28.0855

Atoms

1 1 6.769560 1.270820 1.378970
2 1 9.499400 4.040240 1.367800
3 1 9.501030 1.405170 4.040130
4 1 1.408150 1.339390 1.367990
5 1 4.053620 4.048860 1.370440
6 1 6.778550 6.777100 1.337690
7 1 9.553470 9.574740 1.368280
8 1 4.117640 1.373520 4.072130
9 1 6.828470 4.055640 4.061930
10 1 9.502500 6.756650 4.100300
11 1 6.834830 1.397210 6.787710
12 1 9.540130 4.072910 6.851010
13 1 9.510620 1.351240 9.518730
14 1 1.291170 6.761430 1.339190
15 1 4.074780 9.449790 1.344210
16 1 1.324300 4.088730 4.047930
17 1 4.050850 6.820500 4.060290
18 1 6.742000 9.467800 4.042730
19 1 1.380160 1.387130 6.748350
20 1 4.123210 4.118530 6.769750
21 1 6.808080 6.754920 6.811190
22 1 9.468290 9.499350 6.743550
23 1 4.050490 1.380430 9.509280
24 1 6.734010 4.114460 9.584490
25 1 9.491710 6.807680 9.538850
26 1 1.346030 9.525090 4.115740
27 1 1.369190 6.751400 6.831860
28 1 4.066540 9.510510 6.819530
29 1 1.348360 4.093910 9.476380
30 1 4.047490 6.809790 9.538200
31 1 6.785510 9.507190 9.426690
32 1 1.366030 9.515900 9.480380
33 1 5.396730 -0.050094 -0.026425
34 1 8.098450 2.648580 0.037499
35 1 8.168870 0.010058 2.739610
36 1 0.037502 0.052132 0.001184
37 1 2.697390 2.709710 -0.017547
38 1 5.348290 5.467460 0.045094
39 1 8.156300 8.200750 -0.012576
40 1 2.775890 -0.040605 2.716810
41 1 5.449290 2.697760 2.703120
42 1 8.150800 5.426770 2.706770
43 1 5.467430 -0.025208 5.454030
44 1 8.212170 2.750700 5.447510
45 1 8.183450 -0.003543 8.113790
46 1 -0.028459 5.412470 -0.012274
47 1 2.699630 8.107710 -0.023903
48 1 0.000020 2.705050 2.670210
49 1 2.674410 5.447190 2.687430
50 1 5.412930 8.101630 2.682930
51 1 -0.037783 0.035271 5.419850
52 1 2.762060 2.781100 5.394870
53 1 5.499100 5.451290 5.360200
54 1 8.086530 8.104900 5.400480
55 1 2.696980 0.037323 8.129260
56 1 5.446310 2.781920 8.143230
57 1 8.152530 5.406330 8.228320
58 1 0.002268 8.139680 2.755890
59 1 0.007652 5.391590 5.463850
60 1 2.693800 8.171360 5.480550
61 1 0.035128 2.691310 8.142110
62 1 2.740580 5.413010 8.182260
63 1 5.403290 8.129730 8.133800
64 1 -0.019688 8.154680 8.136360
