LAMMPS DATA file

192 atoms
0 bonds
0 angles
0 dihedrals
0 impropers

2 atom types
0 bond types
0 angle types

0.0 12.990503 xlo xhi
0.0 11.250148 ylo yhi
0.0 15.845291 zlo zhi

Masses

1 69.723
2 14.0067

Atoms

1 1 1.588609 0.944787 2.702414 0 0 0
2 1 1.720332 0.898966 7.964794 0 0 0
3 1 1.747223 0.842096 13.226539 0 0 0
4 1 12.968132 3.707149 2.560599 0 0 0
5 1 0.067232 3.861501 7.817908 0 0 0
6 1 0.073046 3.681611 13.354886 0 0 0
7 1 4.950031 0.920465 2.707960 0 0 0
8 1 3.247236 1.944588 5.230847 0 0 0
9 1 4.760500 0.957984 8.047189 0 0 0
10 1 3.168124 1.859762 10.636944 0 0 0
11 1 4.751666 1.037939 13.282473 0 0 0
12 1 3.262955 1.803849 15.839111 0 0 0
13 1 3.252302 3.861276 2.747890 0 0 0
14 1 1.743975 4.727875 5.245742 0 0 0
15 1 3.360643 3.745399 7.832169 0 0 0
16 1 1.596923 4.733725 10.576573 0 0 0
17 1 3.314267 3.861501 13.345538 0 0 0
18 1 1.632906 4.791888 15.718053 0 0 0
19 1 1.507288 6.518561 2.660741 0 0 0
20 1 1.631867 6.652888 7.930093 0 0 0
21 1 1.606146 6.572224 13.266311 0 0 0
22 1 12.864932 9.442812 2.522095 0 0 0
23 1 12.984912 9.320410 7.875743 0 0 0
24 1 0.042029 9.300835 13.128774 0 0 0
25 1 8.040602 0.868905 2.580564 0 0 0
26 1 6.594109 1.868537 5.245900 0 0 0
27 1 8.035665 1.043024 7.887786 0 0 0
28 1 6.584756 1.900938 10.518896 0 0 0
29 1 8.217013 1.001601 13.187877 0 0 0
30 1 6.576832 1.964726 15.817403 0 0 0
31 1 6.452253 3.771837 2.762785 0 0 0
32 1 4.923920 4.660036 5.350796 0 0 0
33 1 6.613205 3.759687 7.929934 0 0 0
34 1 4.822335 4.591073 10.457258 0 0 0
35 1 6.389509 3.741799 13.043368 0 0 0
36 1 4.979260 4.719662 15.681767 0 0 0
37 1 4.749458 6.496961 2.621128 0 0 0
38 1 3.150847 7.389547 5.348261 0 0 0
39 1 4.833506 6.625662 7.897134 0 0 0
40 1 3.231128 7.398660 10.415268 0 0 0
41 1 4.765176 6.583699 13.116890 0 0 0
42 1 3.336351 7.580462 0.141023 0 0 0
43 1 3.244768 9.312198 2.548557 0 0 0
44 1 1.633426 10.371624 5.227995 0 0 0
45 1 3.237493 9.406474 8.049408 0 0 0
46 1 1.535867 10.361162 10.582753 0 0 0
47 1 3.230348 9.461600 13.165060 0 0 0
48 1 1.540414 10.342599 0.033275 0 0 0
49 1 11.322003 1.005673 2.793683 0 0 0
50 1 9.867846 1.791136 5.191393 0 0 0
51 1 11.242891 0.961685 7.793823 0 0 0
52 1 9.718845 1.961463 10.573245 0 0 0
53 1 11.332655 0.871886 13.180271 0 0 0
54 1 9.861351 1.790461 15.830554 0 0 0
55 1 9.835630 3.647298 2.696076 0 0 0
56 1 8.243514 4.638774 5.160177 0 0 0
57 1 9.791072 3.842151 7.952276 0 0 0
58 1 8.222989 4.618636 10.638687 0 0 0
59 1 9.702997 3.731787 13.089795 0 0 0
60 1 8.201944 4.715725 0.069719 0 0 0
61 1 8.198307 6.465235 2.778313 0 0 0
62 1 6.494602 7.557512 5.353173 0 0 0
63 1 8.205062 6.485260 7.903631 0 0 0
64 1 6.525909 7.597338 10.664197 0 0 0
65 1 8.221819 6.581112 13.225113 0 0 0
66 1 6.587484 7.395397 0.117255 0 0 0
67 1 6.471219 9.270797 2.713348 0 0 0
68 1 4.781804 10.232572 5.309915 0 0 0
69 1 6.431468 9.335598 7.886043 0 0 0
70 1 4.847146 10.287023 10.592894 0 0 0
71 1 6.408735 9.304885 13.070463 0 0 0
72 1 4.825452 10.373312 15.755606 0 0 0
73 1 0.062354 1.918375 5.379001 0 0 0
74 1 0.085737 1.828487 10.497663 0 0 0
75 1 0.006495 1.835687 0.099825 0 0 0
76 1 11.447361 4.700424 5.201217 0 0 0
77 1 11.413586 4.627636 10.544249 0 0 0
78 1 11.336682 4.696262 0.150530 0 0 0
79 1 11.432942 6.670663 2.551409 0 0 0
80 1 9.750282 7.399222 5.357610 0 0 0
81 1 11.393191 6.642988 8.071908 0 0 0
82 1 9.854466 7.479774 10.399740 0 0 0
83 1 11.377343 6.496848 13.109918 0 0 0
84 1 9.697670 7.409235 0.072888 0 0 0
85 1 9.807440 9.384874 2.584050 0 0 0
86 1 8.205451 10.324486 5.421308 0 0 0
87 1 9.844983 9.342798 7.931836 0 0 0
88 1 8.079184 10.340236 10.651997 0 0 0
89 1 9.806791 9.290822 13.301171 0 0 0
90 1 7.995655 10.293436 0.068135 0 0 0
91 1 0.072747 7.470211 5.353807 0 0 0
92 1 0.101326 7.442198 10.440620 0 0 0
93 1 12.919055 7.466386 15.772402 0 0 0
94 1 11.477759 10.211647 5.305637 0 0 0
95 1 11.279134 10.388724 10.452663 0 0 0
96 1 11.367210 10.424950 15.793952 0 0 0
97 2 1.506119 0.873079 4.594659 0 0 0
98 2 1.580555 0.876668 10.047023 0 0 0
99 2 1.671358 1.041482 15.170915 0 0 0
100 2 0.114406 3.638860 4.662001 0 0 0
101 2 0.078224 3.689936 10.045914 0 0 0
102 2 0.068400 3.823475 15.213856 0 0 0
103 2 4.947433 0.899044 4.539359 0 0 0
104 2 3.198911 1.894075 2.090628 0 0 0
105 2 4.817009 0.915582 10.023572 0 0 0
106 2 3.277374 1.985539 7.173955 0 0 0
107 2 4.956397 0.977075 15.111020 0 0 0
108 2 3.241390 1.852337 12.581161 0 0 0
109 2 3.325699 3.661136 4.728869 0 0 0
110 2 1.712408 4.654861 1.964024 0 0 0
111 2 3.266332 3.795238 9.985702 0 0 0
112 2 1.690844 4.662624 7.245576 0 0 0
113 2 3.366229 3.766437 15.301322 0 0 0
114 2 1.565745 4.715050 12.577675 0 0 0
115 2 1.744235 6.469398 4.627142 0 0 0
116 2 1.629399 6.470410 10.037041 0 0 0
117 2 1.723710 6.548824 15.279772 0 0 0
118 2 12.899172 9.402086 4.551243 0 0 0
119 2 12.976385 9.452487 9.812513 0 0 0
120 2 12.939544 9.371373 15.139224 0 0 0
121 2 8.196618 1.047198 4.518918 0 0 0
122 2 6.426922 1.920513 1.946752 0 0 0
123 2 8.242085 1.043778 9.954328 0 0 0
124 2 6.588783 1.852899 7.309749 0 0 0
125 2 8.245072 0.950896 15.327942 0 0 0
126 2 6.552540 1.871462 12.593678 0 0 0
127 2 6.595928 3.682286 4.593867 0 0 0
128 2 4.999265 4.665549 2.036437 0 0 0
129 2 6.599565 3.861501 9.957339 0 0 0
130 2 4.769723 4.583198 7.305313 0 0 0
131 2 6.512659 3.853963 15.268522 0 0 0
132 2 4.913658 4.692774 12.473571 0 0 0
133 2 4.991471 6.571662 4.478196 0 0 0
134 2 3.298678 7.504524 1.846452 0 0 0
135 2 4.972765 6.524411 9.823129 0 0 0
136 2 3.147339 7.457611 7.181878 0 0 0
137 2 4.910930 6.465010 15.119418 0 0 0
138 2 3.190987 7.585637 12.532040 0 0 0
139 2 3.314137 9.398374 4.716826 0 0 0
140 2 1.523526 10.420337 2.096649 0 0 0
141 2 3.130841 9.367548 9.853552 0 0 0
142 2 1.657588 10.251923 7.293270 0 0 0
143 2 3.274386 9.397586 15.174243 0 0 0
144 2 1.503131 10.315711 12.520473 0 0 0
145 2 11.264845 0.928486 4.611455 0 0 0
146 2 9.756128 1.943688 2.049747 0 0 0
147 2 11.463340 0.836752 9.819960 0 0 0
148 2 9.732355 1.978226 7.359821 0 0 0
149 2 11.354219 0.900034 15.050808 0 0 0
150 2 9.805492 1.876525 12.454557 0 0 0
151 2 9.723911 3.675536 4.706844 0 0 0
152 2 8.084899 4.786938 1.833142 0 0 0
153 2 9.828355 3.778587 9.921053 0 0 0
154 2 8.158166 4.738562 7.139413 0 0 0
155 2 9.840956 3.640773 15.125439 0 0 0
156 2 8.035925 4.783451 12.412884 0 0 0
157 2 8.140109 6.593487 4.674995 0 0 0
158 2 6.589952 7.400235 2.086508 0 0 0
159 2 8.126599 6.606312 9.817584 0 0 0
160 2 6.506553 7.545699 7.412585 0 0 0
161 2 8.104645 6.469285 15.050332 0 0 0
162 2 6.528897 7.566737 12.610316 0 0 0
163 2 6.455111 9.475662 4.633480 0 0 0
164 2 4.989392 10.216710 1.893354 0 0 0
165 2 6.566699 9.468350 9.998378 0 0 0
166 2 4.818308 10.234260 7.378201 0 0 0
167 2 6.569297 9.323560 15.104365 0 0 0
168 2 4.824933 10.386812 12.651831 0 0 0
169 2 0.018187 1.891150 1.918389 0 0 0
170 2 0.051962 1.941663 7.249379 0 0 0
171 2 12.976473 1.867300 12.479592 0 0 0
172 2 11.412287 4.778388 2.115663 0 0 0
173 2 11.430863 4.633711 7.327972 0 0 0
174 2 11.271080 4.602886 12.451705 0 0 0
175 2 11.274588 6.581674 4.491823 0 0 0
176 2 9.826666 7.550199 2.121051 0 0 0
177 2 11.364742 6.597424 10.032446 0 0 0
178 2 9.752880 7.451086 7.418765 0 0 0
179 2 11.246268 6.523511 15.340460 0 0 0
180 2 9.707803 7.457161 12.429521 0 0 0
181 2 9.850958 9.293072 4.573902 0 0 0
182 2 8.222339 10.312561 2.022651 0 0 0
183 2 9.764442 9.419749 9.759590 0 0 0
184 2 8.126339 10.207372 7.371546 0 0 0
185 2 9.701308 9.453162 15.110069 0 0 0
186 2 8.140239 10.411112 12.406387 0 0 0
187 2 12.874628 7.392247 2.043726 0 0 0
188 2 0.025981 7.413285 7.361722 0 0 0
189 2 0.031177 7.403385 12.413201 0 0 0
190 2 11.272119 10.377587 1.856910 0 0 0
191 2 11.298620 10.254960 7.142740 0 0 0
192 2 11.459832 10.357224 12.623785 0 0 0
