LAMMPS DATA file

192 atoms
0 bonds
0 angles
0 dihedrals
0 impropers

2 atom types
0 bond types
0 angle types

0.0 12.990503 xlo xhi
0.0 11.250148 ylo yhi
0.0 15.845291 zlo zhi

Masses

1 69.723
2 14.0067

Atoms

1 1 1.623810 0.937510 2.635400 0 0 0
2 1 1.623810 0.937510 7.917160 0 0 0
3 1 1.623810 0.937510 13.198930 0 0 0
4 1 0.000000 3.750050 2.635400 0 0 0
5 1 0.000000 3.750050 7.917160 0 0 0
6 1 0.000000 3.750050 13.198930 0 0 0
7 1 4.871440 0.937510 2.635400 0 0 0
8 1 3.247620 1.875030 5.276280 0 0 0
9 1 4.871440 0.937510 7.917160 0 0 0
10 1 3.247620 1.875030 10.558040 0 0 0
11 1 4.871440 0.937510 13.198930 0 0 0
12 1 3.247620 1.875030 15.839810 0 0 0
13 1 3.247630 3.750050 2.635400 0 0 0
14 1 1.623810 4.687560 5.276280 0 0 0
15 1 3.247630 3.750050 7.917160 0 0 0
16 1 1.623810 4.687560 10.558040 0 0 0
17 1 3.247630 3.750050 13.198930 0 0 0
18 1 1.623810 4.687560 15.839810 0 0 0
19 1 1.623810 6.562580 2.635400 0 0 0
20 1 1.623810 6.562580 7.917160 0 0 0
21 1 1.623810 6.562580 13.198930 0 0 0
22 1 0.000000 9.375120 2.635400 0 0 0
23 1 0.000000 9.375120 7.917160 0 0 0
24 1 0.000000 9.375120 13.198930 0 0 0
25 1 8.119070 0.937510 2.635400 0 0 0
26 1 6.495250 1.875030 5.276280 0 0 0
27 1 8.119070 0.937510 7.917160 0 0 0
28 1 6.495250 1.875030 10.558040 0 0 0
29 1 8.119070 0.937510 13.198930 0 0 0
30 1 6.495250 1.875030 15.839810 0 0 0
31 1 6.495250 3.750050 2.635400 0 0 0
32 1 4.871440 4.687560 5.276280 0 0 0
33 1 6.495250 3.750050 7.917160 0 0 0
34 1 4.871440 4.687560 10.558040 0 0 0
35 1 6.495250 3.750050 13.198930 0 0 0
36 1 4.871440 4.687560 15.839810 0 0 0
37 1 4.871440 6.562580 2.635400 0 0 0
38 1 3.247620 7.500100 5.276280 0 0 0
39 1 4.871440 6.562580 7.917160 0 0 0
40 1 3.247620 7.500100 10.558040 0 0 0
41 1 4.871440 6.562580 13.198930 0 0 0
42 1 3.247620 7.500100 15.839810 0 0 0
43 1 3.247630 9.375120 2.635400 0 0 0
44 1 1.623810 10.312640 5.276280 0 0 0
45 1 3.247630 9.375120 7.917160 0 0 0
46 1 1.623810 10.312640 10.558040 0 0 0
47 1 3.247630 9.375120 13.198930 0 0 0
48 1 1.623810 10.312640 15.839810 0 0 0
49 1 11.366690 0.937510 2.635400 0 0 0
50 1 9.742880 1.875030 5.276280 0 0 0
51 1 11.366690 0.937510 7.917160 0 0 0
52 1 9.742880 1.875030 10.558040 0 0 0
53 1 11.366690 0.937510 13.198930 0 0 0
54 1 9.742880 1.875030 15.839810 0 0 0
55 1 9.742880 3.750050 2.635400 0 0 0
56 1 8.119060 4.687560 5.276280 0 0 0
57 1 9.742880 3.750050 7.917160 0 0 0
58 1 8.119060 4.687560 10.558040 0 0 0
59 1 9.742880 3.750050 13.198930 0 0 0
60 1 8.119060 4.687560 15.839810 0 0 0
61 1 8.119070 6.562580 2.635400 0 0 0
62 1 6.495250 7.500100 5.276280 0 0 0
63 1 8.119070 6.562580 7.917160 0 0 0
64 1 6.495250 7.500100 10.558040 0 0 0
65 1 8.119070 6.562580 13.198930 0 0 0
66 1 6.495250 7.500100 15.839810 0 0 0
67 1 6.495250 9.375120 2.635400 0 0 0
68 1 4.871440 10.312640 5.276280 0 0 0
69 1 6.495250 9.375120 7.917160 0 0 0
70 1 4.871440 10.312640 10.558040 0 0 0
71 1 6.495250 9.375120 13.198930 0 0 0
72 1 4.871440 10.312640 15.839810 0 0 0
73 1 12.990500 1.875030 5.276280 0 0 0
74 1 12.990500 1.875030 10.558040 0 0 0
75 1 12.990500 1.875030 15.839810 0 0 0
76 1 11.366690 4.687560 5.276280 0 0 0
77 1 11.366690 4.687560 10.558040 0 0 0
78 1 11.366690 4.687560 15.839810 0 0 0
79 1 11.366690 6.562580 2.635400 0 0 0
80 1 9.742880 7.500100 5.276280 0 0 0
81 1 11.366690 6.562580 7.917160 0 0 0
82 1 9.742880 7.500100 10.558040 0 0 0
83 1 11.366690 6.562580 13.198930 0 0 0
84 1 9.742880 7.500100 15.839810 0 0 0
85 1 9.742880 9.375120 2.635400 0 0 0
86 1 8.119060 10.312640 5.276280 0 0 0
87 1 9.742880 9.375120 7.917160 0 0 0
88 1 8.119060 10.312640 10.558040 0 0 0
89 1 9.742880 9.375120 13.198930 0 0 0
90 1 8.119060 10.312640 15.839810 0 0 0
91 1 12.990500 7.500100 5.276280 0 0 0
92 1 12.990500 7.500100 10.558040 0 0 0
93 1 12.990500 7.500100 15.839810 0 0 0
94 1 11.366690 10.312640 5.276280 0 0 0
95 1 11.366690 10.312640 10.558040 0 0 0
96 1 11.366690 10.312640 15.839810 0 0 0
97 2 1.623810 0.937510 4.627030 0 0 0
98 2 1.623810 0.937510 9.908790 0 0 0
99 2 1.623810 0.937510 15.190550 0 0 0
100 2 0.000000 3.750050 4.627030 0 0 0
101 2 0.000000 3.750050 9.908790 0 0 0
102 2 0.000000 3.750050 15.190550 0 0 0
103 2 4.871440 0.937510 4.627030 0 0 0
104 2 3.247620 1.875030 1.986140 0 0 0
105 2 4.871440 0.937510 9.908790 0 0 0
106 2 3.247620 1.875030 7.267910 0 0 0
107 2 4.871440 0.937510 15.190550 0 0 0
108 2 3.247620 1.875030 12.549670 0 0 0
109 2 3.247630 3.750050 4.627030 0 0 0
110 2 1.623810 4.687560 1.986140 0 0 0
111 2 3.247630 3.750050 9.908790 0 0 0
112 2 1.623810 4.687560 7.267910 0 0 0
113 2 3.247630 3.750050 15.190550 0 0 0
114 2 1.623810 4.687560 12.549670 0 0 0
115 2 1.623810 6.562580 4.627030 0 0 0
116 2 1.623810 6.562580 9.908790 0 0 0
117 2 1.623810 6.562580 15.190550 0 0 0
118 2 0.000000 9.375120 4.627030 0 0 0
119 2 0.000000 9.375120 9.908790 0 0 0
120 2 0.000000 9.375120 15.190550 0 0 0
121 2 8.119070 0.937510 4.627030 0 0 0
122 2 6.495250 1.875030 1.986140 0 0 0
123 2 8.119070 0.937510 9.908790 0 0 0
124 2 6.495250 1.875030 7.267910 0 0 0
125 2 8.119070 0.937510 15.190550 0 0 0
126 2 6.495250 1.875030 12.549670 0 0 0
127 2 6.495250 3.750050 4.627030 0 0 0
128 2 4.871440 4.687560 1.986140 0 0 0
129 2 6.495250 3.750050 9.908790 0 0 0
130 2 4.871440 4.687560 7.267910 0 0 0
131 2 6.495250 3.750050 15.190550 0 0 0
132 2 4.871440 4.687560 12.549670 0 0 0
133 2 4.871440 6.562580 4.627030 0 0 0
134 2 3.247620 7.500100 1.986140 0 0 0
135 2 4.871440 6.562580 9.908790 0 0 0
136 2 3.247620 7.500100 7.267910 0 0 0
137 2 4.871440 6.562580 15.190550 0 0 0
138 2 3.247620 7.500100 12.549670 0 0 0
139 2 3.247630 9.375120 4.627030 0 0 0
140 2 1.623810 10.312640 1.986140 0 0 0
141 2 3.247630 9.375120 9.908790 0 0 0
142 2 1.623810 10.312640 7.267910 0 0 0
143 2 3.247630 9.375120 15.190550 0 0 0
144 2 1.623810 10.312640 12.549670 0 0 0
145 2 11.366690 0.937510 4.627030 0 0 0
146 2 9.742880 1.875030 1.986140 0 0 0
147 2 11.366690 0.937510 9.908790 0 0 0
148 2 9.742880 1.875030 7.267910 0 0 0
149 2 11.366690 0.937510 15.190550 0 0 0
150 2 9.742880 1.875030 12.549670 0 0 0
151 2 9.742880 3.750050 4.627030 0 0 0
152 2 8.119060 4.687560 1.986140 0 0 0
153 2 9.742880 3.750050 9.908790 0 0 0
154 2 8.119060 4.687560 7.267910 0 0 0
155 2 9.742880 3.750050 15.190550 0 0 0
156 2 8.119060 4.687560 12.549670 0 0 0
157 2 8.119070 6.562580 4.627030 0 0 0
158 2 6.495250 7.500100 1.986140 0 0 0
159 2 8.119070 6.562580 9.908790 0 0 0
160 2 6.495250 7.500100 7.267910 0 0 0
161 2 8.119070 6.562580 15.190550 0 0 0
162 2 6.495250 7.500100 12.549670 0 0 0
163 2 6.495250 9.375120 4.627030 0 0 0
164 2 4.871440 10.312640 1.986140 0 0 0
165 2 6.495250 9.375120 9.908790 0 0 0
166 2 4.871440 10.312640 7.267910 0 0 0
167 2 6.495250 9.375120 15.190550 0 0 0
168 2 4.871440 10.312640 12.549670 0 0 0
169 2 12.990500 1.875030 1.986140 0 0 0
170 2 12.990500 1.875030 7.267910 0 0 0
171 2 12.990500 1.875030 12.549670 0 0 0
172 2 11.366690 4.687560 1.986140 0 0 0
173 2 11.366690 4.687560 7.267910 0 0 0
174 2 11.366690 4.687560 12.549670 0 0 0
175 2 11.366690 6.562580 4.627030 0 0 0
176 2 9.742880 7.500100 1.986140 0 0 0
177 2 11.366690 6.562580 9.908790 0 0 0
178 2 9.742880 7.500100 7.267910 0 0 0
179 2 11.366690 6.562580 15.190550 0 0 0
180 2 9.742880 7.500100 12.549670 0 0 0
181 2 9.742880 9.375120 4.627030 0 0 0
182 2 8.119060 10.312640 1.986140 0 0 0
183 2 9.742880 9.375120 9.908790 0 0 0
184 2 8.119060 10.312640 7.267910 0 0 0
185 2 9.742880 9.375120 15.190550 0 0 0
186 2 8.119060 10.312640 12.549670 0 0 0
187 2 12.990500 7.500100 1.986140 0 0 0
188 2 12.990500 7.500100 7.267910 0 0 0
189 2 12.990500 7.500100 12.549670 0 0 0
190 2 11.366690 10.312640 1.986140 0 0 0
191 2 11.366690 10.312640 7.267910 0 0 0
192 2 11.366690 10.312640 12.549670 0 0 0
