LAMMPS DATA file

64 atoms

1 atom types

0.000000 10.862000 xlo xhi
0.000000 10.862000 ylo yhi
0.000000 10.862000 zlo zhi

Masses

1 28.0855

Atoms

1 1 6.764640 1.274510 1.324980
2 1 9.557430 3.977700 1.344730
3 1 9.498850 1.345970 4.062250
4 1 1.410470 1.344900 1.356800
5 1 4.106760 4.110960 1.419950
6 1 6.757040 6.834600 1.396310
7 1 9.457450 9.530020 1.384850
8 1 4.112900 1.350830 4.052970
9 1 6.810900 4.092020 4.047120
10 1 9.493300 6.771980 4.062640
11 1 6.840550 1.367260 6.740040
12 1 9.492960 4.071730 6.799950
13 1 9.563590 1.332310 9.499400
14 1 1.317960 6.806590 1.349620
15 1 3.991890 9.492450 1.331240
16 1 1.337490 4.056990 4.133940
17 1 4.068440 6.782720 4.028370
18 1 6.805280 9.468800 4.115470
19 1 1.345600 1.390170 6.791600
20 1 4.067780 4.070710 6.803870
21 1 6.753910 6.807230 6.787420
22 1 9.523280 9.577880 6.730720
23 1 4.058960 1.343090 9.496470
24 1 6.794040 4.060940 9.539800
25 1 9.472560 6.800950 9.512180
26 1 1.376600 9.487390 4.087800
27 1 1.356560 6.823620 6.796730
28 1 4.129920 9.464680 6.765040
29 1 1.409230 4.071770 9.525250
30 1 4.017420 6.796850 9.554630
31 1 6.784920 9.513370 9.462450
32 1 1.340000 9.531770 9.414930
33 1 5.354300 -0.056462 -0.057356
34 1 8.114290 2.629790 -0.005895
35 1 8.116130 0.007122 2.769340
36 1 -0.003376 -0.014771 0.046084
37 1 2.767040 2.711450 0.027717
38 1 5.425420 5.466930 0.038575
39 1 8.128600 8.148340 0.024108
40 1 2.724680 -0.012613 2.702520
41 1 5.447960 2.710880 2.711850
42 1 8.168650 5.400810 2.658570
43 1 5.509030 -0.010323 5.449350
44 1 8.162560 2.762040 5.427400
45 1 8.162290 0.011022 8.136620
46 1 -0.004007 5.408800 -0.002107
47 1 2.653790 8.145990 -0.120247
48 1 -0.008853 2.696250 2.714720
49 1 2.645650 5.438540 2.726940
50 1 5.422280 8.190370 2.732380
51 1 0.048057 0.042405 5.411220
52 1 2.762370 2.726570 5.406990
53 1 5.468850 5.444790 5.410200
54 1 8.176000 8.087840 5.478650
55 1 2.732420 0.042140 8.064750
56 1 5.456430 2.763400 8.120140
57 1 8.100650 5.443930 8.196640
58 1 -0.019846 8.140340 2.748870
59 1 -0.022682 5.432580 5.492800
60 1 2.775110 8.131340 5.458450
61 1 -0.004423 2.758130 8.178540
62 1 2.680180 5.421780 8.142630
63 1 5.415210 8.123020 8.184570
64 1 -0.037457 8.190830 8.141460
