LAMMPS DATA file

192 atoms
0 bonds
0 angles
0 dihedrals
0 impropers

2 atom types
0 bond types
0 angle types

0.0 12.990503 xlo xhi
0.0 11.250148 ylo yhi
0.0 15.845291 zlo zhi

Masses

1 69.723
2 14.0067

Atoms

1 1 1.729945 0.850927 2.712872 0 0 0
2 1 1.682140 0.852514 8.070799 0 0 0
3 1 1.547948 0.881202 13.194532 0 0 0
4 1 12.936658 3.798725 2.658840 0 0 0
5 1 0.054828 3.660236 7.858155 0 0 0
6 1 0.111275 3.838438 13.230184 0 0 0
7 1 4.870529 1.010792 2.735531 0 0 0
8 1 3.154354 1.898575 5.368384 0 0 0
9 1 4.936002 0.827223 7.819968 0 0 0
10 1 3.217748 1.861225 10.682420 0 0 0
11 1 4.983287 0.960538 13.271540 0 0 0
12 1 3.350121 1.843899 15.745941 0 0 0
13 1 3.255550 3.846201 2.543486 0 0 0
14 1 1.749041 4.668699 5.202960 0 0 0
15 1 3.307512 3.757775 7.877645 0 0 0
16 1 1.593285 4.623923 10.667367 0 0 0
17 1 3.136297 3.719074 13.075217 0 0 0
18 1 1.731244 4.584210 15.753546 0 0 0
19 1 1.585101 6.650525 2.630318 0 0 0
20 1 1.548338 6.521711 8.043703 0 0 0
21 1 1.495727 6.489198 13.283741 0 0 0
22 1 12.906214 9.376774 2.570106 0 0 0
23 1 0.096975 9.447874 8.075235 0 0 0
24 1 12.957910 9.376999 13.277720 0 0 0
25 1 8.093084 1.034631 2.612413 0 0 0
26 1 6.376259 1.797999 5.232273 0 0 0
27 1 8.004488 1.014763 8.040693 0 0 0
28 1 6.380675 1.808124 10.427310 0 0 0
29 1 8.138031 0.923333 13.068562 0 0 0
30 1 6.566829 1.927713 15.727402 0 0 0
31 1 6.525390 3.817175 2.736957 0 0 0
32 1 4.837274 4.757350 5.137043 0 0 0
33 1 6.388989 3.818750 7.931994 0 0 0
34 1 4.974064 4.617061 10.663405 0 0 0
35 1 6.381585 3.772512 13.059530 0 0 0
36 1 4.802199 4.624486 15.763529 0 0 0
37 1 4.897290 6.606425 2.769123 0 0 0
38 1 3.288026 7.530174 5.245108 0 0 0
39 1 4.834546 6.552199 8.024530 0 0 0
40 1 3.219047 7.587775 10.656750 0 0 0
41 1 4.955227 6.644675 13.147788 0 0 0
42 1 3.134219 7.447598 15.710764 0 0 0
43 1 3.292183 9.475212 2.684984 0 0 0
44 1 1.602119 10.254510 5.229104 0 0 0
45 1 3.299458 9.372611 8.018668 0 0 0
46 1 1.579645 10.221322 10.663247 0 0 0
47 1 3.228530 9.320410 13.232561 0 0 0
48 1 1.643818 10.416512 15.701415 0 0 0
49 1 11.423719 1.027960 2.538732 0 0 0
50 1 9.846152 1.947401 5.328930 0 0 0
51 1 11.407351 0.945507 7.805549 0 0 0
52 1 9.772885 1.846712 10.538703 0 0 0
53 1 11.392412 1.022560 13.077277 0 0 0
54 1 9.869015 1.955388 15.821364 0 0 0
55 1 9.829004 3.703436 2.638875 0 0 0
56 1 8.184277 4.660599 5.202167 0 0 0
57 1 9.681173 3.768687 7.899194 0 0 0
58 1 8.105165 4.795263 10.650412 0 0 0
59 1 9.667922 3.850926 13.059055 0 0 0
60 1 7.995395 4.622011 15.774621 0 0 0
61 1 8.084250 6.641300 2.775461 0 0 0
62 1 6.381974 7.479774 5.418139 0 0 0
63 1 8.047097 6.460735 7.761023 0 0 0
64 1 6.422505 7.539174 10.441413 0 0 0
65 1 8.172196 6.536674 13.155236 0 0 0
66 1 6.615414 7.407323 15.762420 0 0 0
67 1 6.472518 9.420987 2.713981 0 0 0
68 1 4.751277 10.375899 5.218330 0 0 0
69 1 6.473038 9.282385 7.869405 0 0 0
70 1 4.775179 10.268573 10.699532 0 0 0
71 1 6.565400 9.447424 13.076801 0 0 0
72 1 4.794405 10.333486 15.684778 0 0 0
73 1 12.931267 1.911175 5.181410 0 0 0
74 1 0.048065 1.786636 10.541238 0 0 0
75 1 12.893594 1.879450 15.762737 0 0 0
76 1 11.278355 4.669937 5.294862 0 0 0
77 1 11.314858 4.740587 10.507329 0 0 0
78 1 11.248347 4.666899 15.783494 0 0 0
79 1 11.329927 6.462310 2.714140 0 0 0
80 1 9.633627 7.453448 5.249862 0 0 0
81 1 11.418652 6.501686 8.011854 0 0 0
82 1 9.810688 7.464248 10.472786 0 0 0
83 1 11.420991 6.541511 13.339992 0 0 0
84 1 9.782758 7.410810 0.083980 0 0 0
85 1 9.794190 9.286885 2.542377 0 0 0
86 1 8.231692 10.246185 5.130705 0 0 0
87 1 9.753919 9.263597 7.941184 0 0 0
88 1 8.105035 10.390637 10.587665 0 0 0
89 1 9.626872 9.417274 13.081238 0 0 0
90 1 8.233771 10.208947 0.060212 0 0 0
91 1 0.068850 7.545362 5.242890 0 0 0
92 1 0.102625 7.493274 10.594637 0 0 0
93 1 12.894503 7.575512 15.822949 0 0 0
94 1 11.476200 10.373424 5.186005 0 0 0
95 1 11.273548 10.225597 10.470726 0 0 0
96 1 11.294463 10.250123 15.823107 0 0 0
97 2 1.574319 1.009105 4.654713 0 0 0
98 2 1.720202 0.990497 9.972867 0 0 0
99 2 1.715916 0.855146 15.072833 0 0 0
100 2 12.979445 3.702649 4.681174 0 0 0
101 2 12.920788 3.684536 9.943554 0 0 0
102 2 0.029183 3.861388 15.345689 0 0 0
103 2 4.929376 1.011400 4.584359 0 0 0
104 2 3.155653 1.938626 2.032475 0 0 0
105 2 4.999135 0.999396 10.057798 0 0 0
106 2 3.155653 1.924113 7.200575 0 0 0
107 2 4.898199 0.930342 15.212271 0 0 0
108 2 3.355577 1.856274 12.419380 0 0 0
109 2 3.317125 3.721324 4.623339 0 0 0
110 2 1.570032 4.712800 2.096807 0 0 0
111 2 3.283610 3.749562 10.042428 0 0 0
112 2 1.584062 4.580048 7.124835 0 0 0
113 2 3.324530 3.855988 15.267096 0 0 0
114 2 1.566395 4.735750 12.422232 0 0 0
115 2 1.731374 6.626675 4.516700 0 0 0
116 2 1.603288 6.664925 9.810453 0 0 0
117 2 1.564966 6.462198 15.079171 0 0 0
118 2 12.881522 9.422674 4.490714 0 0 0
119 2 0.006275 9.437749 9.773058 0 0 0
120 2 0.041920 9.360461 15.156971 0 0 0
121 2 8.146215 1.049189 4.509094 0 0 0
122 2 6.416789 1.962251 1.846769 0 0 0
123 2 8.010854 0.956825 9.762284 0 0 0
124 2 6.392237 1.852337 7.279802 0 0 0
125 2 8.045278 0.911791 15.321604 0 0 0
126 2 6.459398 1.884400 12.449169 0 0 0
127 2 6.454072 3.829100 4.774186 0 0 0
128 2 4.880922 4.774788 2.065275 0 0 0
129 2 6.401590 3.638635 10.001072 0 0 0
130 2 4.875076 4.627073 7.332408 0 0 0
131 2 6.534483 3.832926 15.142235 0 0 0
132 2 4.827401 4.641136 12.395454 0 0 0
133 2 4.814151 6.643100 4.516383 0 0 0
134 2 3.261266 7.401360 2.095857 0 0 0
135 2 4.991731 6.517886 9.824239 0 0 0
136 2 3.360643 7.577087 7.356652 0 0 0
137 2 4.873387 6.581112 15.217976 0 0 0
138 2 3.226971 7.575062 12.440455 0 0 0
139 2 3.146170 9.380374 4.643779 0 0 0
140 2 1.536387 10.233697 1.846769 0 0 0
141 2 3.230089 9.372836 9.751984 0 0 0
142 2 1.561848 10.277235 7.113743 0 0 0
143 2 3.299848 9.453725 15.165369 0 0 0
144 2 1.704614 10.422925 12.528554 0 0 0
145 2 11.486723 0.922940 4.534288 0 0 0
146 2 9.665584 1.932663 2.126913 0 0 0
147 2 11.460352 0.916516 10.051777 0 0 0
148 2 9.734823 1.921638 7.264907 0 0 0
149 2 11.331746 0.963114 15.239208 0 0 0
150 2 9.668572 1.888225 12.694296 0 0 0
151 2 9.842644 3.856101 4.668815 0 0 0
152 2 8.094642 4.674887 1.829814 0 0 0
153 2 9.700009 3.810650 9.955121 0 0 0
154 2 8.105554 4.786601 7.419557 0 0 0
155 2 9.740799 3.736962 15.284843 0 0 0
156 2 8.020467 4.761175 12.627746 0 0 0
157 2 8.141668 6.518223 4.653920 0 0 0
158 2 6.514737 7.434098 1.845818 0 0 0
159 2 8.048786 6.672575 10.005826 0 0 0
160 2 6.376518 7.509586 7.193287 0 0 0
161 2 8.121403 6.581112 15.046529 0 0 0
162 2 6.592940 7.496536 12.452814 0 0 0
163 2 6.620350 9.465762 4.667547 0 0 0
164 2 4.837404 10.408975 2.112494 0 0 0
165 2 6.378857 9.282497 9.825982 0 0 0
166 2 4.828440 10.392324 7.114219 0 0 0
167 2 6.432507 9.424924 15.060156 0 0 0
168 2 4.965490 10.237635 12.534259 0 0 0
169 2 12.934384 1.885750 2.135470 0 0 0
170 2 12.899310 1.957863 7.264273 0 0 0
171 2 0.023383 1.763236 12.545033 0 0 0
172 2 11.426836 4.695924 2.140382 0 0 0
173 2 11.367080 4.586235 7.144483 0 0 0
174 2 11.359286 4.612223 12.535526 0 0 0
175 2 11.397088 6.475923 4.494675 0 0 0
176 2 9.617909 7.407210 1.958953 0 0 0
177 2 11.351621 6.642763 9.826615 0 0 0
178 2 9.832122 7.471898 7.115486 0 0 0
179 2 11.430604 6.487060 15.038448 0 0 0
180 2 9.765091 7.567412 12.607147 0 0 0
181 2 9.690396 9.382961 4.523989 0 0 0
182 2 8.127508 10.247873 2.044518 0 0 0
183 2 9.713779 9.314335 9.932620 0 0 0
184 2 8.023195 10.264185 7.133708 0 0 0
185 2 9.714168 9.458450 15.225898 0 0 0
186 2 8.084380 10.345299 12.586707 0 0 0
187 2 12.948284 7.424873 2.127230 0 0 0
188 2 0.002598 7.602175 7.258411 0 0 0
189 2 0.113017 7.565725 12.547886 0 0 0
190 2 11.240293 10.254173 1.966401 0 0 0
191 2 11.467497 10.405600 7.307056 0 0 0
192 2 11.358636 10.385574 12.506212 0 0 0
