LAMMPS DATA file

192 atoms
0 bonds
0 angles
0 dihedrals
0 impropers

2 atom types
0 bond types
0 angle types

0.0 12.990503 xlo xhi
0.0 11.250148 ylo yhi
0.0 15.845291 zlo zhi

Masses

1 69.723
2 14.0067

Atoms

1 1 1.640051 0.930781 2.590863 0 0 0
2 1 1.590557 0.911161 7.839933 0 0 0
3 1 1.746443 0.973633 13.200553 0 0 0
4 1 12.912047 3.661023 2.758507 0 0 0
5 1 12.954900 3.739662 7.779245 0 0 0
6 1 0.091134 3.700399 13.329534 0 0 0
7 1 4.757122 0.963598 2.655671 0 0 0
8 1 3.291404 1.838049 5.129754 0 0 0
9 1 4.815839 1.034541 8.012171 0 0 0
10 1 3.203718 1.928500 10.579425 0 0 0
11 1 4.745691 0.920746 13.049706 0 0 0
12 1 3.321412 1.983176 0.055459 0 0 0
13 1 3.320243 3.772062 2.567096 0 0 0
14 1 1.687726 4.731137 5.258101 0 0 0
15 1 3.226581 3.671486 7.929934 0 0 0
16 1 1.544961 4.743625 10.626327 0 0 0
17 1 3.300757 3.803225 13.248564 0 0 0
18 1 1.725399 4.685574 15.789674 0 0 0
19 1 1.743975 6.478173 2.543011 0 0 0
20 1 1.534178 6.631850 7.780038 0 0 0
21 1 1.621345 6.584712 13.156186 0 0 0
22 1 0.048991 9.455412 2.762310 0 0 0
23 1 0.117304 9.465087 7.760706 0 0 0
24 1 12.871495 9.458562 13.181380 0 0 0
25 1 8.104125 0.899393 2.774669 0 0 0
26 1 6.550591 1.973839 5.286147 0 0 0
27 1 7.994875 1.009600 7.849757 0 0 0
28 1 6.590732 1.956063 10.574038 0 0 0
29 1 8.107893 1.016271 13.150640 0 0 0
30 1 6.427311 1.774036 15.724074 0 0 0
31 1 6.515517 3.841026 2.721270 0 0 0
32 1 4.924440 4.670162 5.421308 0 0 0
33 1 6.561633 3.719862 7.933262 0 0 0
34 1 4.799082 4.632699 10.632665 0 0 0
35 1 6.447317 3.732574 13.277720 0 0 0
36 1 4.833247 4.675562 15.692067 0 0 0
37 1 4.930675 6.589887 2.516866 0 0 0
38 1 3.173710 7.456936 5.127694 0 0 0
39 1 4.793885 6.465235 7.758805 0 0 0
40 1 3.283090 7.568200 10.524600 0 0 0
41 1 4.809734 6.513948 13.266628 0 0 0
42 1 3.168124 7.518137 15.759726 0 0 0
43 1 3.360903 9.389599 2.755654 0 0 0
44 1 1.751769 10.413025 5.269351 0 0 0
45 1 3.150197 9.277097 7.881289 0 0 0
46 1 1.638882 10.407737 10.695730 0 0 0
47 1 3.332064 9.303873 13.165060 0 0 0
48 1 1.731114 10.320323 15.824375 0 0 0
49 1 11.310961 0.965139 2.534613 0 0 0
50 1 9.853816 1.923213 5.381536 0 0 0
51 1 11.365781 1.041730 8.025957 0 0 0
52 1 9.642591 1.973163 10.617771 0 0 0
53 1 11.316547 1.018656 13.341101 0 0 0
54 1 9.790163 1.889237 15.728828 0 0 0
55 1 9.869145 3.820888 2.766112 0 0 0
56 1 8.166870 4.643274 5.349687 0 0 0
57 1 9.684680 3.776000 7.852134 0 0 0
58 1 8.123871 4.741375 10.635359 0 0 0
59 1 9.717806 3.673736 13.047646 0 0 0
60 1 8.016699 4.784801 0.031691 0 0 0
61 1 8.153749 6.451623 2.545071 0 0 0
62 1 6.386391 7.423973 5.146867 0 0 0
63 1 8.023974 6.466248 7.843894 0 0 0
64 1 6.375739 7.555037 10.699057 0 0 0
65 1 8.046707 6.585162 13.178687 0 0 0
66 1 6.410424 7.431398 15.741345 0 0 0
67 1 6.606970 9.372948 2.729351 0 0 0
68 1 4.789599 10.251360 5.387082 0 0 0
69 1 6.493823 9.484437 7.813313 0 0 0
70 1 4.988353 10.286123 10.541396 0 0 0
71 1 6.458878 9.295097 13.299269 0 0 0
72 1 4.788689 10.387599 15.810114 0 0 0
73 1 12.970108 1.882487 5.254140 0 0 0
74 1 12.861248 1.912075 10.481026 0 0 0
75 1 0.023383 1.842999 0.009507 0 0 0
76 1 11.439567 4.700762 5.213418 0 0 0
77 1 11.356428 4.782326 10.680360 0 0 0
78 1 11.465288 4.793351 0.074473 0 0 0
79 1 11.240812 6.673363 2.621445 0 0 0
80 1 9.748204 7.407548 5.366641 0 0 0
81 1 11.423199 6.572787 7.994583 0 0 0
82 1 9.791592 7.525112 10.425726 0 0 0
83 1 11.334734 6.541174 13.258230 0 0 0
84 1 9.718195 7.512399 0.031691 0 0 0
85 1 9.721443 9.452712 2.651709 0 0 0
86 1 8.200385 10.271048 5.390092 0 0 0
87 1 9.669481 9.288572 7.785900 0 0 0
88 1 8.029300 10.380624 10.705237 0 0 0
89 1 9.664155 9.437637 13.048914 0 0 0
90 1 8.018778 10.242135 0.129931 0 0 0
91 1 0.012991 7.394610 5.395638 0 0 0
92 1 0.116915 7.496199 10.536801 0 0 0
93 1 0.031177 7.439386 0.058628 0 0 0
94 1 11.491659 10.236960 5.317680 0 0 0
95 1 11.403583 10.343386 10.712367 0 0 0
96 1 11.337332 10.259010 15.826435 0 0 0
97 2 1.523656 0.905581 4.717460 0 0 0
98 2 1.573150 0.989417 9.954804 0 0 0
99 2 1.712018 0.942144 15.153010 0 0 0
100 2 0.030982 3.773637 4.638233 0 0 0
101 2 0.059787 3.722224 9.788904 0 0 0
102 2 12.955930 3.819988 15.316533 0 0 0
103 2 4.831558 0.828585 4.477721 0 0 0
104 2 3.338429 1.973951 2.069395 0 0 0
105 2 4.992510 0.935877 9.926124 0 0 0
106 2 3.287117 1.981489 7.395789 0 0 0
107 2 4.748029 0.954238 15.263293 0 0 0
108 2 3.157082 1.773698 12.560720 0 0 0
109 2 3.128113 3.750012 4.535239 0 0 0
110 2 1.617577 4.722250 1.843283 0 0 0
111 2 3.340768 3.646398 9.953378 0 0 0
112 2 1.625502 4.704924 7.388025 0 0 0
113 2 3.165656 3.682849 15.073942 0 0 0
114 2 1.707472 4.740475 12.674331 0 0 0
115 2 1.535348 6.545111 4.667864 0 0 0
116 2 1.649014 6.516648 9.998220 0 0 0
117 2 1.593155 6.671675 15.097076 0 0 0
118 2 0.072683 9.452712 4.614782 0 0 0
119 2 0.046540 9.442024 9.825031 0 0 0
120 2 0.065533 9.469587 15.347273 0 0 0
121 2 8.218572 0.938274 4.470432 0 0 0
122 2 6.369244 1.784161 2.077159 0 0 0
123 2 8.132964 0.986908 9.822813 0 0 0
124 2 6.368594 1.789561 7.310066 0 0 0
125 2 7.993057 1.036577 15.348858 0 0 0
126 2 6.463555 1.963938 12.578150 0 0 0
127 2 6.582288 3.746074 4.487386 0 0 0
128 2 4.861176 4.646761 2.116139 0 0 0
129 2 6.598656 3.784100 9.828358 0 0 0
130 2 4.802329 4.698512 7.234009 0 0 0
131 2 6.561503 3.725824 15.116249 0 0 0
132 2 4.831688 4.785251 12.509698 0 0 0
133 2 4.866892 6.503711 4.636966 0 0 0
134 2 3.172281 7.454011 1.996348 0 0 0
135 2 4.873387 6.562436 10.039259 0 0 0
136 2 3.307512 7.590025 7.364574 0 0 0
137 2 4.857929 6.502923 15.053343 0 0 0
138 2 3.191507 7.484724 12.535526 0 0 0
139 2 3.372205 9.471162 4.657882 0 0 0
140 2 1.645507 10.225597 1.954200 0 0 0
141 2 3.362722 9.310848 9.804432 0 0 0
142 2 1.584062 10.339674 7.247477 0 0 0
143 2 3.225802 9.326823 15.318910 0 0 0
144 2 1.671358 10.223572 12.417637 0 0 0
145 2 11.240293 1.031729 4.584993 0 0 0
146 2 9.722612 1.892050 1.886699 0 0 0
147 2 11.242501 0.973059 9.895701 0 0 0
148 2 9.664934 1.806774 7.329239 0 0 0
149 2 11.430993 0.947262 15.198803 0 0 0
150 2 9.718585 1.887887 12.622834 0 0 0
151 2 9.689227 3.814025 4.492615 0 0 0
152 2 8.111660 4.664874 2.116455 0 0 0
153 2 9.724171 3.850138 9.878588 0 0 0
154 2 8.052163 4.771413 7.266016 0 0 0
155 2 9.723002 3.761825 15.110861 0 0 0
156 2 8.055931 4.622236 12.575298 0 0 0
157 2 8.206101 6.641975 4.672618 0 0 0
158 2 6.621259 7.607913 2.044042 0 0 0
159 2 8.193240 6.528574 9.997745 0 0 0
160 2 6.377428 7.466948 7.222600 0 0 0
161 2 8.022805 6.671113 15.163785 0 0 0
162 2 6.470959 7.563700 12.528554 0 0 0
163 2 6.515127 9.408949 4.478988 0 0 0
164 2 4.846497 10.415950 2.016472 0 0 0
165 2 6.607749 9.473412 9.989822 0 0 0
166 2 4.881571 10.385574 7.112792 0 0 0
167 2 6.559295 9.285760 15.047480 0 0 0
168 2 4.789728 10.306486 12.394345 0 0 0
169 2 0.093532 1.869100 1.875132 0 0 0
170 2 12.924382 1.775273 7.174431 0 0 0
171 2 12.981540 1.866287 12.502410 0 0 0
172 2 11.351362 4.649124 2.009024 0 0 0
173 2 11.494647 4.736537 7.223868 0 0 0
174 2 11.385527 4.660599 12.509065 0 0 0
175 2 11.347075 6.617337 4.582616 0 0 0
176 2 9.775743 7.579450 1.865783 0 0 0
177 2 11.282122 6.664025 10.060175 0 0 0
178 2 9.678445 7.451648 7.375190 0 0 0
179 2 11.445153 6.533299 15.147147 0 0 0
180 2 9.683511 7.446023 12.706339 0 0 0
181 2 9.625054 9.414799 4.627617 0 0 0
182 2 8.018648 10.303898 2.055451 0 0 0
183 2 9.862520 9.381611 10.046706 0 0 0
184 2 8.246242 10.304911 7.224819 0 0 0
185 2 9.636485 9.452600 15.163151 0 0 0
186 2 8.185966 10.324824 12.542181 0 0 0
187 2 12.929838 7.418010 1.852314 0 0 0
188 2 0.089634 7.463461 7.323059 0 0 0
189 2 12.887748 7.519712 12.427620 0 0 0
190 2 11.301608 10.293323 2.054500 0 0 0
191 2 11.462690 10.383662 7.183146 0 0 0
192 2 11.326809 10.416287 12.486723 0 0 0
