LAMMPS DATA file

192 atoms
0 bonds
0 angles
0 dihedrals
0 impropers

2 atom types
0 bond types
0 angle types

0.0 12.990503 xlo xhi
0.0 11.250148 ylo yhi
0.0 15.845291 zlo zhi

Masses

1 69.723
2 14.0067

Atoms

1 1 1.665642 0.957309 2.558539 0 0 0
2 1 1.670709 1.026441 7.879546 0 0 0
3 1 1.575618 0.860501 13.253159 0 0 0
4 1 0.008242 3.819988 2.640142 0 0 0
5 1 12.909596 3.812675 8.045446 0 0 0
6 1 0.016552 3.772512 13.236997 0 0 0
7 1 4.910540 0.854696 2.556638 0 0 0
8 1 3.297250 1.848287 5.295021 0 0 0
9 1 4.792846 1.001589 7.955287 0 0 0
10 1 3.177347 1.782586 10.710783 0 0 0
11 1 4.909631 0.988269 13.235254 0 0 0
12 1 3.371425 1.818924 15.770501 0 0 0
13 1 3.260616 3.852613 2.556796 0 0 0
14 1 1.633686 4.706162 5.271094 0 0 0
15 1 3.242819 3.703099 7.816323 0 0 0
16 1 1.554314 4.684899 10.610165 0 0 0
17 1 3.128633 3.851376 13.181697 0 0 0
18 1 1.605756 4.743287 15.759092 0 0 0
19 1 1.686947 6.514173 2.496426 0 0 0
20 1 1.653171 6.535211 8.018192 0 0 0
21 1 1.507028 6.648725 13.066185 0 0 0
22 1 0.087370 9.419412 2.668188 0 0 0
23 1 0.003565 9.318385 7.981907 0 0 0
24 1 0.012141 9.460925 13.083140 0 0 0
25 1 8.214934 1.045713 2.594191 0 0 0
26 1 6.415880 1.871350 5.256675 0 0 0
27 1 8.030599 1.032797 7.891747 0 0 0
28 1 6.536691 1.856949 10.696046 0 0 0
29 1 8.174274 1.039334 13.330484 0 0 0
30 1 6.412762 1.912975 15.711873 0 0 0
31 1 6.621000 3.804913 2.544595 0 0 0
32 1 4.901966 4.650586 5.318313 0 0 0
33 1 6.499409 3.814588 7.918050 0 0 0
34 1 4.784272 4.689287 10.660395 0 0 0
35 1 6.476805 3.673061 13.254427 0 0 0
36 1 4.813371 4.659361 15.807103 0 0 0
37 1 4.775829 6.667513 2.781482 0 0 0
38 1 3.121358 7.502161 5.179667 0 0 0
39 1 4.963152 6.641975 7.940709 0 0 0
40 1 3.200081 7.474598 10.642014 0 0 0
41 1 4.918334 6.478285 13.236839 0 0 0
42 1 3.296340 7.558637 15.753388 0 0 0
43 1 3.176048 9.265960 2.662484 0 0 0
44 1 1.684349 10.394687 5.142748 0 0 0
45 1 3.230089 9.443712 7.920268 0 0 0
46 1 1.599131 10.304911 10.516361 0 0 0
47 1 3.263734 9.386899 13.098351 0 0 0
48 1 1.668760 10.344624 0.095072 0 0 0
49 1 11.305635 1.004818 2.575652 0 0 0
50 1 9.798866 1.967988 5.340814 0 0 0
51 1 11.259389 0.939275 8.004724 0 0 0
52 1 9.743657 1.775723 10.611274 0 0 0
53 1 11.343178 0.825243 13.254110 0 0 0
54 1 9.732875 1.978001 15.803934 0 0 0
55 1 9.680523 3.684311 2.678013 0 0 0
56 1 8.081262 4.605473 5.186481 0 0 0
57 1 9.770417 3.737412 7.910920 0 0 0
58 1 8.219611 4.577910 10.582911 0 0 0
59 1 9.630250 3.703324 13.194849 0 0 0
60 1 8.034886 4.686699 0.033275 0 0 0
61 1 8.179340 6.672350 2.604332 0 0 0
62 1 6.595149 7.430385 5.329088 0 0 0
63 1 8.116337 6.555799 7.880655 0 0 0
64 1 6.403669 7.571462 10.434599 0 0 0
65 1 8.201035 6.634662 13.125446 0 0 0
66 1 6.390548 7.512961 0.099825 0 0 0
67 1 6.541238 9.320073 2.563610 0 0 0
68 1 4.813501 10.363524 5.355550 0 0 0
69 1 6.456800 9.477237 8.060341 0 0 0
70 1 4.897420 10.361387 10.683846 0 0 0
71 1 6.394965 9.360461 13.307984 0 0 0
72 1 4.905084 10.384674 15.704584 0 0 0
73 1 0.124709 1.924450 5.424160 0 0 0
74 1 12.951012 1.897112 10.552805 0 0 0
75 1 0.085737 1.778536 15.828495 0 0 0
76 1 11.290956 4.732262 5.349845 0 0 0
77 1 11.257700 4.664761 10.691927 0 0 0
78 1 11.350192 4.628423 15.753863 0 0 0
79 1 11.307324 6.632300 2.617642 0 0 0
80 1 9.849400 7.487761 5.249069 0 0 0
81 1 11.390203 6.549949 7.781781 0 0 0
82 1 9.729497 7.591825 10.558351 0 0 0
83 1 11.279914 6.493361 13.208000 0 0 0
84 1 9.850439 7.395622 15.733264 0 0 0
85 1 9.653503 9.372498 2.597677 0 0 0
86 1 8.189473 10.231897 5.330197 0 0 0
87 1 9.762363 9.446862 7.951167 0 0 0
88 1 8.179081 10.367462 10.595904 0 0 0
89 1 9.677405 9.295210 13.194373 0 0 0
90 1 8.089186 10.210860 15.691908 0 0 0
91 1 0.033775 7.457273 5.177290 0 0 0
92 1 0.068850 7.524999 10.627753 0 0 0
93 1 0.024682 7.550199 0.123593 0 0 0
94 1 11.269781 10.371174 5.145917 0 0 0
95 1 11.414106 10.404700 10.448385 0 0 0
96 1 11.480747 10.412012 15.819621 0 0 0
97 2 1.557821 0.841084 4.739168 0 0 0
98 2 1.648365 0.954564 9.861950 0 0 0
99 2 1.718514 0.840251 15.095808 0 0 0
100 2 0.106078 3.680936 4.510204 0 0 0
101 2 0.071462 3.798163 9.899028 0 0 0
102 2 12.953410 3.667886 15.067604 0 0 0
103 2 4.866892 1.033337 4.540310 0 0 0
104 2 3.140974 1.876637 1.923143 0 0 0
105 2 4.942886 0.826672 9.829943 0 0 0
106 2 3.290494 1.806661 7.424311 0 0 0
107 2 4.937950 0.898921 15.203556 0 0 0
108 2 3.242040 1.811274 12.642640 0 0 0
109 2 3.283480 3.809525 4.703041 0 0 0
110 2 1.526904 4.729000 2.064483 0 0 0
111 2 3.210733 3.680486 9.932303 0 0 0
112 2 1.562108 4.663186 7.211192 0 0 0
113 2 3.187869 3.638635 15.131302 0 0 0
114 2 1.665642 4.689174 12.669577 0 0 0
115 2 1.513653 6.667063 4.510679 0 0 0
116 2 1.649014 6.535324 9.876528 0 0 0
117 2 1.698768 6.571212 15.175827 0 0 0
118 2 12.864297 9.334248 4.555046 0 0 0
119 2 12.965021 9.314335 9.966846 0 0 0
120 2 12.955300 9.306010 15.070297 0 0 0
121 2 8.158426 0.895231 4.490872 0 0 0
122 2 6.534223 1.953476 1.859762 0 0 0
123 2 8.078144 0.872629 9.779238 0 0 0
124 2 6.430949 1.809136 7.304679 0 0 0
125 2 8.220910 0.986199 15.306234 0 0 0
126 2 6.583067 1.766948 12.496230 0 0 0
127 2 6.380026 3.788937 4.543954 0 0 0
128 2 4.864943 4.587473 2.094114 0 0 0
129 2 6.521233 3.700399 10.056214 0 0 0
130 2 4.764267 4.585560 7.305154 0 0 0
131 2 6.616973 3.665973 15.149841 0 0 0
132 2 4.812592 4.604123 12.513501 0 0 0
133 2 4.822854 6.642425 4.719995 0 0 0
134 2 3.279712 7.511836 1.902544 0 0 0
135 2 4.803109 6.518898 9.821228 0 0 0
136 2 3.159550 7.588000 7.355384 0 0 0
137 2 4.970037 6.630162 15.058572 0 0 0
138 2 3.160070 7.393485 12.493378 0 0 0
139 2 3.170852 9.381274 4.479305 0 0 0
140 2 1.534828 10.335961 2.011243 0 0 0
141 2 3.258148 9.477800 9.950209 0 0 0
142 2 1.649794 10.210972 7.180927 0 0 0
143 2 3.210863 9.428187 15.199437 0 0 0
144 2 1.678243 10.311661 12.642799 0 0 0
145 2 11.290436 1.036926 4.676579 0 0 0
146 2 9.676236 1.825449 1.857702 0 0 0
147 2 11.413586 1.034496 9.931828 0 0 0
148 2 9.849529 1.906113 7.417497 0 0 0
149 2 11.402414 1.005201 15.310829 0 0 0
150 2 9.861611 1.832424 12.582745 0 0 0
151 2 9.684160 3.653936 4.514640 0 0 0
152 2 8.073728 4.699299 1.884005 0 0 0
153 2 9.757427 3.787137 9.922638 0 0 0
154 2 8.217273 4.593323 7.118021 0 0 0
155 2 9.783668 3.675986 15.186285 0 0 0
156 2 8.141798 4.645749 12.504786 0 0 0
157 2 8.241955 6.476035 4.752320 0 0 0
158 2 6.584756 7.414973 1.875924 0 0 0
159 2 8.184667 6.489873 9.939275 0 0 0
160 2 6.484729 7.563137 7.352849 0 0 0
161 2 8.134653 6.645800 15.102146 0 0 0
162 2 6.575663 7.420035 12.573397 0 0 0
163 2 6.465114 9.409061 4.642036 0 0 0
164 2 4.841041 10.234485 1.899533 0 0 0
165 2 6.447187 9.287110 9.861158 0 0 0
166 2 4.838573 10.264973 7.406406 0 0 0
167 2 6.620740 9.468462 15.116407 0 0 0
168 2 4.759720 10.275773 12.671479 0 0 0
169 2 12.862677 1.795636 1.919182 0 0 0
170 2 12.895023 1.771786 7.395314 0 0 0
171 2 0.120812 1.857962 12.440138 0 0 0
172 2 11.493867 4.732262 2.044518 0 0 0
173 2 11.339800 4.797963 7.397849 0 0 0
174 2 11.274718 4.672749 12.520315 0 0 0
175 2 11.480877 6.538699 4.721738 0 0 0
176 2 9.613622 7.504861 2.053074 0 0 0
177 2 11.294463 6.515073 10.005033 0 0 0
178 2 9.845372 7.570225 7.318147 0 0 0
179 2 11.493348 6.601587 15.096125 0 0 0
180 2 9.650515 7.432860 12.422549 0 0 0
181 2 9.774964 9.415587 4.569940 0 0 0
182 2 8.036575 10.405600 1.864515 0 0 0
183 2 9.866157 9.309160 10.040685 0 0 0
184 2 8.162972 10.250685 7.157318 0 0 0
185 2 9.799386 9.284747 15.209736 0 0 0
186 2 8.125820 10.249448 12.602552 0 0 0
187 2 12.978032 7.497886 1.975908 0 0 0
188 2 0.071448 7.469198 7.336211 0 0 0
189 2 12.901518 7.499799 12.453448 0 0 0
190 2 11.284331 10.352499 2.112019 0 0 0
191 2 11.393321 10.258560 7.294063 0 0 0
192 2 11.360715 10.395474 12.605404 0 0 0
