LAMMPS DATA file

192 atoms
0 bonds
0 angles
0 dihedrals
0 impropers

2 atom types
0 bond types
0 angle types

0.0 12.990503 xlo xhi
0.0 11.250148 ylo yhi
0.0 15.845291 zlo zhi

Masses

1 69.723
2 14.0067

Atoms

1 1 1.641220 0.883722 2.477728 0 0 0
2 1 1.568603 1.009802 8.042436 0 0 0
3 1 1.752679 0.826908 13.272649 0 0 0
4 1 12.882585 3.780050 2.732045 0 0 0
5 1 0.085730 3.765200 7.841042 0 0 0
6 1 0.073926 3.675648 13.127348 0 0 0
7 1 4.742833 0.914457 2.485334 0 0 0
8 1 3.339728 1.808574 5.390409 0 0 0
9 1 4.756083 0.875295 7.773066 0 0 0
10 1 3.312838 1.919613 10.690818 0 0 0
11 1 4.977701 1.006258 13.357263 0 0 0
12 1 3.325829 1.835237 15.689373 0 0 0
13 1 3.308162 3.743937 2.601321 0 0 0
14 1 1.717345 4.588035 5.239721 0 0 0
15 1 3.154614 3.647861 7.979847 0 0 0
16 1 1.731244 4.661386 10.476589 0 0 0
17 1 3.353369 3.795463 13.324305 0 0 0
18 1 1.740208 4.785813 0.152115 0 0 0
19 1 1.597052 6.598549 2.737749 0 0 0
20 1 1.655640 6.607662 7.913772 0 0 0
21 1 1.626151 6.625550 13.053350 0 0 0
22 1 0.104188 9.427287 2.672150 0 0 0
23 1 0.066302 9.326598 7.824088 0 0 0
24 1 0.039540 9.471500 13.295466 0 0 0
25 1 8.080223 0.885803 2.712872 0 0 0
26 1 6.553189 1.955276 5.408948 0 0 0
27 1 8.059048 0.979843 7.954494 0 0 0
28 1 6.383923 1.804861 10.505903 0 0 0
29 1 8.069960 0.919553 13.068245 0 0 0
30 1 6.510840 1.912750 15.717894 0 0 0
31 1 6.447317 3.858238 2.757714 0 0 0
32 1 4.747509 4.769275 5.195512 0 0 0
33 1 6.477974 3.667998 7.827098 0 0 0
34 1 4.942757 4.594673 10.526502 0 0 0
35 1 6.518635 3.681724 13.261241 0 0 0
36 1 4.895601 4.679499 15.757825 0 0 0
37 1 4.848835 6.623412 2.488186 0 0 0
38 1 3.275555 7.405523 5.249386 0 0 0
39 1 4.997576 6.639725 7.775284 0 0 0
40 1 3.306733 7.413510 10.553439 0 0 0
41 1 4.967179 6.453873 13.300062 0 0 0
42 1 3.321412 7.431173 0.125178 0 0 0
43 1 3.295301 9.462500 2.702890 0 0 0
44 1 1.619916 10.387599 5.146550 0 0 0
45 1 3.124346 9.338186 7.912980 0 0 0
46 1 1.552495 10.324936 10.615394 0 0 0
47 1 3.334662 9.464187 13.179162 0 0 0
48 1 1.597702 10.299173 15.779533 0 0 0
49 1 11.352920 1.042000 2.623505 0 0 0
50 1 9.741838 1.767398 5.178716 0 0 0
51 1 11.470095 0.912601 7.790971 0 0 0
52 1 9.703776 1.802724 10.478491 0 0 0
53 1 11.403324 1.044554 13.332227 0 0 0
54 1 9.627002 1.965738 15.741504 0 0 0
55 1 9.870834 3.710974 2.549032 0 0 0
56 1 8.234290 4.757463 5.410850 0 0 0
57 1 9.799646 3.835401 8.032929 0 0 0
58 1 8.082042 4.605698 10.655007 0 0 0
59 1 9.789903 3.734599 13.340625 0 0 0
60 1 8.236239 4.582298 15.768916 0 0 0
61 1 8.006827 6.636125 2.602589 0 0 0
62 1 6.516296 7.464923 5.425586 0 0 0
63 1 8.145955 6.600349 8.032295 0 0 0
64 1 6.474467 7.404173 10.675765 0 0 0
65 1 8.169598 6.639387 13.254744 0 0 0
66 1 6.547603 7.589125 0.022183 0 0 0
67 1 6.449785 9.486462 2.542694 0 0 0
68 1 4.815839 10.387599 5.361888 0 0 0
69 1 6.417439 9.434712 7.953861 0 0 0
70 1 4.992120 10.313461 10.551221 0 0 0
71 1 6.517465 9.482975 13.151116 0 0 0
72 1 4.809344 10.332924 0.072888 0 0 0
73 1 12.881903 1.846937 5.145441 0 0 0
74 1 12.943218 1.864487 10.450603 0 0 0
75 1 12.876187 1.862575 15.771768 0 0 0
76 1 11.288487 4.689737 5.124050 0 0 0
77 1 11.452428 4.620098 10.534741 0 0 0
78 1 11.427226 4.693562 15.766698 0 0 0
79 1 11.436319 6.664813 2.514172 0 0 0
80 1 9.619468 7.482586 5.138311 0 0 0
81 1 11.269391 6.470860 7.832486 0 0 0
82 1 9.667792 7.524774 10.524600 0 0 0
83 1 11.425537 6.666388 13.278195 0 0 0
84 1 9.633367 7.582937 15.796329 0 0 0
85 1 9.820041 9.439549 2.581990 0 0 0
86 1 8.235979 10.386587 5.317204 0 0 0
87 1 9.689746 9.401411 8.071908 0 0 0
88 1 8.078534 10.254060 10.399740 0 0 0
89 1 9.849270 9.403774 13.289604 0 0 0
90 1 8.183627 10.338886 15.739444 0 0 0
91 1 0.089634 7.548737 5.324335 0 0 0
92 1 0.029878 7.584175 10.650729 0 0 0
93 1 0.058457 7.479661 0.152115 0 0 0
94 1 11.398907 10.279598 5.175706 0 0 0
95 1 11.320184 10.257660 10.697789 0 0 0
96 1 11.468796 10.422475 0.137854 0 0 0
97 2 1.720982 0.861514 4.515116 0 0 0
98 2 1.662784 1.002782 9.773217 0 0 0
99 2 1.557431 0.827415 15.105791 0 0 0
100 2 12.926813 3.842826 4.584993 0 0 0
101 2 12.870481 3.783987 10.008995 0 0 0
102 2 12.882359 3.640098 15.147939 0 0 0
103 2 4.848835 0.918620 4.615416 0 0 0
104 2 3.238792 1.885862 1.996507 0 0 0
105 2 4.873387 1.000757 9.842302 0 0 0
106 2 3.260746 1.891825 7.174114 0 0 0
107 2 4.885728 0.873192 15.206092 0 0 0
108 2 3.135907 1.956176 12.457251 0 0 0
109 2 3.179685 3.723124 4.559641 0 0 0
110 2 1.688895 4.646874 1.861663 0 0 0
111 2 3.327128 3.694211 9.909962 0 0 0
112 2 1.504300 4.715500 7.232266 0 0 0
113 2 3.197872 3.712211 15.327308 0 0 0
114 2 1.615499 4.575098 12.621249 0 0 0
115 2 1.597702 6.455223 4.670716 0 0 0
116 2 1.608094 6.583249 9.946247 0 0 0
117 2 1.611862 6.461073 15.260124 0 0 0
118 2 0.062380 9.353711 4.484851 0 0 0
119 2 0.116398 9.460025 10.012639 0 0 0
120 2 12.977161 9.461600 15.302589 0 0 0
121 2 8.157387 0.939039 4.492615 0 0 0
122 2 6.459528 1.814536 2.100293 0 0 0
123 2 8.154009 0.989586 9.799837 0 0 0
124 2 6.612036 1.852674 7.303253 0 0 0
125 2 8.196618 0.979449 15.032110 0 0 0
126 2 6.495901 1.984301 12.393394 0 0 0
127 2 6.375999 3.660798 4.659783 0 0 0
128 2 4.753485 4.669937 1.940414 0 0 0
129 2 6.546564 3.719187 9.853235 0 0 0
130 2 4.917555 4.706275 7.185681 0 0 0
131 2 6.462775 3.683636 15.114030 0 0 0
132 2 4.961723 4.671174 12.599383 0 0 0
133 2 4.879623 6.660875 4.574218 0 0 0
134 2 3.211512 7.555600 2.101402 0 0 0
135 2 4.747250 6.641188 10.006301 0 0 0
136 2 3.258798 7.485174 7.300401 0 0 0
137 2 4.828570 6.625212 15.062692 0 0 0
138 2 3.235155 7.559087 12.589559 0 0 0
139 2 3.118110 9.266522 4.613356 0 0 0
140 2 1.551456 10.283760 1.967510 0 0 0
141 2 3.133439 9.344486 9.869715 0 0 0
142 2 1.572111 10.406725 7.260787 0 0 0
143 2 3.164616 9.329410 15.294984 0 0 0
144 2 1.654470 10.349461 12.586548 0 0 0
145 2 11.304726 1.021322 4.470273 0 0 0
146 2 9.707803 1.895762 2.120734 0 0 0
147 2 11.355778 0.920453 9.957973 0 0 0
148 2 9.811467 1.847949 7.253340 0 0 0
149 2 11.404103 0.990418 15.233029 0 0 0
150 2 9.816404 1.770323 12.423183 0 0 0
151 2 9.623755 3.673623 4.733147 0 0 0
152 2 8.134523 4.613798 2.125170 0 0 0
153 2 9.753789 3.824375 9.850859 0 0 0
154 2 8.049565 4.733050 7.274256 0 0 0
155 2 9.687278 3.643811 15.080597 0 0 0
156 2 8.192851 4.691762 12.523325 0 0 0
157 2 8.017349 6.592137 4.508777 0 0 0
158 2 6.516166 7.429148 1.984464 0 0 0
159 2 8.076326 6.496623 9.783675 0 0 0
160 2 6.405227 7.584062 7.339063 0 0 0
161 2 7.990069 6.632412 15.109911 0 0 0
162 2 6.595538 7.576412 12.503836 0 0 0
163 2 6.447317 9.297348 4.591648 0 0 0
164 2 4.820906 10.384899 1.916329 0 0 0
165 2 6.586575 9.306573 9.862901 0 0 0
166 2 4.831428 10.331911 7.253974 0 0 0
167 2 6.375349 9.348086 15.205299 0 0 0
168 2 4.759331 10.248098 12.635827 0 0 0
169 2 0.033775 1.944476 1.834568 0 0 0
170 2 12.863716 1.852224 7.175857 0 0 0
171 2 0.023383 1.947626 12.628538 0 0 0
172 2 11.478149 4.693112 1.998408 0 0 0
173 2 11.410209 4.771075 7.166983 0 0 0
174 2 11.418393 4.617623 12.454557 0 0 0
175 2 11.437099 6.569299 4.470115 0 0 0
176 2 9.861221 7.584962 2.104096 0 0 0
177 2 11.365131 6.569637 9.760541 0 0 0
178 2 9.807830 7.558187 7.294380 0 0 0
179 2 11.332915 6.560749 15.199120 0 0 0
180 2 9.729497 7.419585 12.598115 0 0 0
181 2 9.788214 9.431337 4.565504 0 0 0
182 2 8.198177 10.267673 1.914586 0 0 0
183 2 9.683251 9.434374 9.851334 0 0 0
184 2 8.081912 10.352161 7.120081 0 0 0
185 2 9.651944 9.357423 15.099611 0 0 0
186 2 8.186615 10.344849 12.657377 0 0 0
187 2 12.914639 7.486186 2.059729 0 0 0
188 2 12.887748 7.487649 7.264907 0 0 0
189 2 0.050663 7.597000 12.440455 0 0 0
190 2 11.250425 10.337086 1.904604 0 0 0
191 2 11.381889 10.352836 7.257302 0 0 0
192 2 11.407870 10.381974 12.662605 0 0 0
