LAMMPS DATA file

192 atoms
0 bonds
0 angles
0 dihedrals
0 impropers

2 atom types
0 bond types
0 angle types

0.0 12.990503 xlo xhi
0.0 11.250148 ylo yhi
0.0 15.845291 zlo zhi

Masses

1 69.723
2 14.0067

Atoms

1 1 1.646416 0.842827 2.538099 0 0 0
2 1 1.695391 0.904523 8.024530 0 0 0
3 1 1.528722 0.982093 13.100728 0 0 0
4 1 12.963695 3.713786 2.769281 0 0 0
5 1 0.087922 3.779150 8.032929 0 0 0
6 1 12.916794 3.652136 13.255378 0 0 0
7 1 4.880532 0.941412 2.558064 0 0 0
8 1 3.339339 1.947738 5.123099 0 0 0
9 1 4.864814 1.037444 7.904106 0 0 0
10 1 3.338559 1.883050 10.537118 0 0 0
11 1 4.747899 0.938487 13.318284 0 0 0
12 1 3.353628 1.826687 15.723440 0 0 0
13 1 3.117721 3.709061 2.644896 0 0 0
14 1 1.709290 4.726637 5.407205 0 0 0
15 1 3.314137 3.675423 8.064144 0 0 0
16 1 1.584452 4.709762 10.631398 0 0 0
17 1 3.344015 3.712549 13.187243 0 0 0
18 1 1.537296 4.679949 15.825959 0 0 0
19 1 1.527164 6.594049 2.761042 0 0 0
20 1 1.604977 6.489648 7.852134 0 0 0
21 1 1.509107 6.463660 13.048914 0 0 0
22 1 0.013114 9.389261 2.573434 0 0 0
23 1 0.066126 9.413674 8.056538 0 0 0
24 1 12.986648 9.379136 13.290554 0 0 0
25 1 8.137511 0.997472 2.768489 0 0 0
26 1 6.420037 1.899363 5.265390 0 0 0
27 1 8.149332 0.870705 7.973509 0 0 0
28 1 6.369893 1.813524 10.689391 0 0 0
29 1 8.188824 0.945001 13.062065 0 0 0
30 1 6.417179 1.765261 0.142608 0 0 0
31 1 6.581509 3.737749 2.790831 0 0 0
32 1 4.947953 4.685012 5.159227 0 0 0
33 1 6.420426 3.824600 7.861324 0 0 0
34 1 4.933533 4.610986 10.631398 0 0 0
35 1 6.379246 3.798275 13.079020 0 0 0
36 1 4.997187 4.708525 15.766698 0 0 0
37 1 4.853772 6.659413 2.637924 0 0 0
38 1 3.134349 7.535912 5.260161 0 0 0
39 1 4.779726 6.624537 7.927082 0 0 0
40 1 3.140584 7.590250 10.674655 0 0 0
41 1 4.756213 6.594049 13.322245 0 0 0
42 1 3.208005 7.537599 15.825325 0 0 0
43 1 3.233856 9.266410 2.749950 0 0 0
44 1 1.737610 10.307836 5.298348 0 0 0
45 1 3.375712 9.353598 7.828366 0 0 0
46 1 1.719033 10.355199 10.453930 0 0 0
47 1 3.120059 9.300610 13.105957 0 0 0
48 1 1.728127 10.359699 15.723123 0 0 0
49 1 11.347205 0.973835 2.579138 0 0 0
50 1 9.768209 1.809924 5.177924 0 0 0
51 1 11.290956 0.985513 7.838824 0 0 0
52 1 9.683121 1.870900 10.469459 0 0 0
53 1 11.328888 0.968503 13.278037 0 0 0
54 1 9.740929 1.901388 15.782543 0 0 0
55 1 9.691565 3.669461 2.744563 0 0 0
56 1 8.063985 4.779513 5.153681 0 0 0
57 1 9.772496 3.701411 7.919793 0 0 0
58 1 8.129197 4.586798 10.538069 0 0 0
59 1 9.669741 3.844176 13.259656 0 0 0
60 1 8.019297 4.655986 15.778423 0 0 0
61 1 8.067752 6.576387 2.729193 0 0 0
62 1 6.487457 7.565612 5.250495 0 0 0
63 1 8.181289 6.530486 8.059707 0 0 0
64 1 6.560204 7.392022 10.638845 0 0 0
65 1 8.226106 6.528349 13.063016 0 0 0
66 1 6.587484 7.408785 0.009507 0 0 0
67 1 6.603203 9.380036 2.493415 0 0 0
68 1 4.856110 10.355649 5.200583 0 0 0
69 1 6.598136 9.366086 7.832169 0 0 0
70 1 4.792456 10.391312 10.634567 0 0 0
71 1 6.537341 9.286660 13.305449 0 0 0
72 1 4.859747 10.346536 0.122009 0 0 0
73 1 12.889307 1.898350 5.122941 0 0 0
74 1 12.884241 1.966301 10.573087 0 0 0
75 1 0.037672 1.815549 0.033275 0 0 0
76 1 11.257310 4.720337 5.173646 0 0 0
77 1 11.397608 4.793351 10.611591 0 0 0
78 1 11.323042 4.678037 15.689214 0 0 0
79 1 11.372666 6.672688 2.706217 0 0 0
80 1 9.716117 7.520499 5.299457 0 0 0
81 1 11.368639 6.482785 7.850866 0 0 0
82 1 9.743137 7.419473 10.528403 0 0 0
83 1 11.390853 6.632187 13.189620 0 0 0
84 1 9.788084 7.557962 15.739127 0 0 0
85 1 9.773925 9.435837 2.610353 0 0 0
86 1 8.103216 10.310086 5.186481 0 0 0
87 1 9.829394 9.375424 7.791288 0 0 0
88 1 8.083860 10.384787 10.438561 0 0 0
89 1 9.781719 9.428412 13.265677 0 0 0
90 1 8.016569 10.415837 15.815660 0 0 0
91 1 0.015589 7.409798 5.270936 0 0 0
92 1 12.900479 7.457048 10.441096 0 0 0
93 1 12.949843 7.536812 15.844974 0 0 0
94 1 11.443724 10.329886 5.138945 0 0 0
95 1 11.301348 10.404587 10.681469 0 0 0
96 1 11.493997 10.272960 0.148946 0 0 0
97 2 1.653431 0.971732 4.659149 0 0 0
98 2 1.701236 0.962360 9.869873 0 0 0
99 2 1.539245 0.838485 15.080438 0 0 0
100 2 12.960216 3.640435 4.774503 0 0 0
101 2 12.943268 3.852613 9.759590 0 0 0
102 2 12.963791 3.700061 15.146830 0 0 0
103 2 4.944315 0.925280 4.486752 0 0 0
104 2 3.130192 1.881925 2.070663 0 0 0
105 2 4.901187 1.034811 9.998061 0 0 0
106 2 3.313877 1.835912 7.274890 0 0 0
107 2 4.909241 0.940040 15.241902 0 0 0
108 2 3.177867 1.983626 12.418430 0 0 0
109 2 3.224892 3.859251 4.622388 0 0 0
110 2 1.652912 4.577573 2.071296 0 0 0
111 2 3.310370 3.686449 9.876211 0 0 0
112 2 1.562108 4.592761 7.179184 0 0 0
113 2 3.243729 3.753499 15.297994 0 0 0
114 2 1.601209 4.665549 12.693187 0 0 0
115 2 1.580944 6.480198 4.688938 0 0 0
116 2 1.733713 6.559736 9.910595 0 0 0
117 2 1.495077 6.492461 15.279138 0 0 0
118 2 0.028795 9.440899 4.734097 0 0 0
119 2 0.048679 9.280922 10.005826 0 0 0
120 2 12.895617 9.390836 15.214173 0 0 0
121 2 7.993316 1.035351 4.663427 0 0 0
122 2 6.539030 1.857399 2.050381 0 0 0
123 2 8.111400 0.917011 10.063661 0 0 0
124 2 6.491354 1.788886 7.381370 0 0 0
125 2 8.078015 0.896198 15.151742 0 0 0
126 2 6.591381 1.882150 12.399257 0 0 0
127 2 6.429909 3.800413 4.605592 0 0 0
128 2 4.809474 4.617623 1.895731 0 0 0
129 2 6.493953 3.644936 9.868447 0 0 0
130 2 4.834156 4.636861 7.193287 0 0 0
131 2 6.558775 3.667211 15.286586 0 0 0
132 2 4.820646 4.652161 12.600175 0 0 0
133 2 4.751666 6.623862 4.687195 0 0 0
134 2 3.358565 7.401585 2.045627 0 0 0
135 2 4.930026 6.640512 9.925807 0 0 0
136 2 3.336611 7.398660 7.349996 0 0 0
137 2 4.917165 6.646813 15.137006 0 0 0
138 2 3.252432 7.489786 12.448060 0 0 0
139 2 3.337910 9.273047 4.634431 0 0 0
140 2 1.554314 10.403350 1.999200 0 0 0
141 2 3.143312 9.455412 9.763868 0 0 0
142 2 1.530801 10.249110 7.355859 0 0 0
143 2 3.210603 9.268322 15.296251 0 0 0
144 2 1.588219 10.377587 12.670053 0 0 0
145 2 11.412547 0.947690 4.753429 0 0 0
146 2 9.638823 1.783036 1.838529 0 0 0
147 2 11.320964 0.862380 10.066672 0 0 0
148 2 9.720923 1.932213 7.329239 0 0 0
149 2 11.436969 1.030266 15.130510 0 0 0
150 2 9.666104 1.778873 12.577358 0 0 0
151 2 9.753919 3.782412 4.658040 0 0 0
152 2 8.106074 4.611661 2.070029 0 0 0
153 2 9.868496 3.669798 10.012639 0 0 0
154 2 8.218052 4.590960 7.260946 0 0 0
155 2 9.804972 3.802663 15.290705 0 0 0
156 2 8.127768 4.701212 12.500984 0 0 0
157 2 8.132315 6.454885 4.702090 0 0 0
158 2 6.582028 7.575737 1.838212 0 0 0
159 2 8.226106 6.471423 10.019928 0 0 0
160 2 6.500967 7.391235 7.150346 0 0 0
161 2 8.143227 6.612500 15.043836 0 0 0
162 2 6.411073 7.439948 12.617763 0 0 0
163 2 6.565530 9.395224 4.745189 0 0 0
164 2 4.859487 10.421575 1.910150 0 0 0
165 2 6.544745 9.396911 9.838816 0 0 0
166 2 4.814021 10.353961 7.366476 0 0 0
167 2 6.385092 9.345723 15.287536 0 0 0
168 2 4.990562 10.423712 12.526019 0 0 0
169 2 12.973096 1.838724 1.971788 0 0 0
170 2 0.070149 1.932550 7.423994 0 0 0
171 2 12.913340 1.847049 12.615862 0 0 0
172 2 11.279264 4.647999 2.084131 0 0 0
173 2 11.293684 4.648899 7.255875 0 0 0
174 2 11.328368 4.591635 12.551372 0 0 0
175 2 11.307973 6.577849 4.477245 0 0 0
176 2 9.772366 7.482924 2.032159 0 0 0
177 2 11.316287 6.515523 9.886827 0 0 0
178 2 9.755998 7.415198 7.150821 0 0 0
179 2 11.296282 6.474123 15.061582 0 0 0
180 2 9.661947 7.541424 12.562780 0 0 0
181 2 9.748463 9.474537 4.670558 0 0 0
182 2 8.175833 10.295686 1.906347 0 0 0
183 2 9.856155 9.443149 9.991723 0 0 0
184 2 8.005138 10.404137 7.317197 0 0 0
185 2 9.859272 9.385324 15.128925 0 0 0
186 2 8.012153 10.295011 12.507639 0 0 0
187 2 0.092233 7.609038 1.844709 0 0 0
188 2 12.953350 7.612413 7.240981 0 0 0
189 2 12.959456 7.411148 12.577992 0 0 0
190 2 11.274847 10.284886 2.124378 0 0 0
191 2 11.418782 10.254848 7.344609 0 0 0
192 2 11.321613 10.283423 12.547410 0 0 0
