LAMMPS DATA file

64 atoms

1 atom types

0.000000 10.862000 xlo xhi
0.000000 10.862000 ylo yhi
0.000000 10.862000 zlo zhi

Masses

1 28.0855

Atoms

1 1 6.763220 1.330440 1.392600
2 1 9.502490 4.064290 1.355180
3 1 9.500800 1.375910 4.047660
4 1 1.425930 1.335370 1.381490
5 1 4.069330 4.036110 1.369660
6 1 6.819260 6.803910 1.341160
7 1 9.570790 9.538060 1.353760
8 1 4.100570 1.369040 4.085780
9 1 6.822950 4.048780 4.023230
10 1 9.512440 6.788310 4.079030
11 1 6.819630 1.385640 6.781020
12 1 9.522290 4.068070 6.823660
13 1 9.533490 1.339110 9.481140
14 1 1.262660 6.796250 1.356420
15 1 4.042550 9.486010 1.346580
16 1 1.355660 4.058850 4.068300
17 1 4.043780 6.817030 4.112920
18 1 6.747110 9.493650 4.040930
19 1 1.383560 1.369980 6.755780
20 1 4.083820 4.109580 6.764060
21 1 6.788680 6.771870 6.795960
22 1 9.443300 9.490750 6.733390
23 1 4.055390 1.337600 9.496960
24 1 6.761230 4.080950 9.591320
25 1 9.497540 6.802600 9.520250
26 1 1.346760 9.526320 4.079270
27 1 1.386810 6.743810 6.798750
28 1 4.043370 9.487520 6.810460
29 1 1.362740 4.076070 9.516680
30 1 4.075020 6.830070 9.516880
31 1 6.774980 9.510910 9.444470
32 1 1.368080 9.513730 9.529320
33 1 5.421360 -0.034345 -0.041570
34 1 8.078800 2.658560 0.008984
35 1 8.137710 -0.015940 2.743580
36 1 0.014383 0.068968 -0.015457
37 1 2.665610 2.733330 0.003535
38 1 5.353030 5.463380 0.035994
39 1 8.162260 8.211180 0.030224
40 1 2.774240 -0.039003 2.713610
41 1 5.425870 2.704800 2.707980
42 1 8.139300 5.447030 2.711570
43 1 5.477720 -0.001558 5.475060
44 1 8.183310 2.779460 5.472830
45 1 8.162060 0.002849 8.134890
46 1 -0.016609 5.398340 -0.046077
47 1 2.701270 8.105060 -0.025520
48 1 0.009271 2.709090 2.678330
49 1 2.712350 5.449900 2.683950
50 1 5.452080 8.089840 2.673430
51 1 -0.043615 0.028147 5.433590
52 1 2.733200 2.791170 5.369700
53 1 5.485070 5.439920 5.358440
54 1 8.125100 8.119720 5.404610
55 1 2.702440 0.037527 8.118900
56 1 5.458630 2.773290 8.132430
57 1 8.163730 5.398810 8.238960
58 1 0.019876 8.121370 2.761270
59 1 -0.012383 5.389290 5.471650
60 1 2.684500 8.163230 5.509400
61 1 -0.004342 2.680010 8.167620
62 1 2.754190 5.426860 8.166600
63 1 5.415320 8.111340 8.137960
64 1 0.014042 8.137810 8.125460
