LAMMPS DATA file

64 atoms

1 atom types

0.000000 10.862000 xlo xhi
0.000000 10.862000 ylo yhi
0.000000 10.862000 zlo zhi

Masses

1 28.0855

Atoms

1 1 6.838180 1.365570 1.373030
2 1 9.473860 4.107170 1.419830
3 1 9.536510 1.361730 4.076210
4 1 1.331800 1.374770 1.324740
5 1 4.035180 4.008790 1.315990
6 1 6.747120 6.687940 1.360880
7 1 9.507070 9.441830 1.315130
8 1 4.062750 1.395070 4.063250
9 1 6.794830 4.024950 4.144430
10 1 9.472710 6.809820 4.130370
11 1 6.796310 1.356970 6.813160
12 1 9.541140 4.110300 6.809360
13 1 9.469890 1.412300 9.513960
14 1 1.321290 6.738370 1.347980
15 1 4.129590 9.489790 1.341160
16 1 1.391120 4.072250 4.027410
17 1 4.072030 6.777200 4.131080
18 1 6.785520 9.488640 3.994600
19 1 1.416050 1.348570 6.759850
20 1 4.114170 4.102450 6.794490
21 1 6.823170 6.782450 6.798170
22 1 9.519600 9.485250 6.816640
23 1 4.088670 1.373940 9.496190
24 1 6.777110 4.085610 9.490220
25 1 9.473940 6.778230 9.528840
26 1 1.332550 9.533270 4.038490
27 1 1.378910 6.812670 6.797890
28 1 4.046400 9.546510 6.802410
29 1 1.287400 4.126300 9.502870
30 1 4.057370 6.830070 9.470350
31 1 6.762750 9.501550 9.507660
32 1 1.377770 9.503010 9.545290
33 1 5.470060 0.017121 0.032409
34 1 8.155930 2.765700 0.011286
35 1 8.183470 -0.022403 2.698910
36 1 0.016199 0.022138 -0.040654
37 1 2.656090 2.682110 -0.040813
38 1 5.377190 5.372930 -0.008174
39 1 8.099430 8.104260 -0.008312
40 1 2.724140 -0.006894 2.669680
41 1 5.448200 2.704560 2.709310
42 1 8.082860 5.439660 2.791150
43 1 5.453110 -0.002687 5.400120
44 1 8.250220 2.632580 5.440290
45 1 8.159150 -0.011482 8.130470
46 1 -0.037190 5.445000 0.023562
47 1 2.724370 8.130680 0.068393
48 1 0.029023 2.741660 2.723710
49 1 2.748590 5.409120 2.716720
50 1 5.407170 8.087920 2.695670
51 1 -0.009569 -0.003162 5.446680
52 1 2.752390 2.752370 5.416610
53 1 5.414940 5.450340 5.449300
54 1 8.095800 8.200580 5.391280
55 1 2.701760 0.004955 8.209860
56 1 5.464690 2.704700 8.163990
57 1 8.178380 5.420450 8.140530
58 1 -0.019827 8.166040 2.694090
59 1 0.058339 5.433060 5.415370
60 1 2.663640 8.160820 5.417980
61 1 0.044504 2.681660 8.118090
62 1 2.722460 5.474650 8.139220
63 1 5.372560 8.200180 8.095590
64 1 -0.014849 8.144020 8.171760
