LAMMPS DATA file

64 atoms

1 atom types

0.000000 10.862000 xlo xhi
0.000000 10.862000 ylo yhi
0.000000 10.862000 zlo zhi

Masses

1 28.0855

Atoms

1 1 6.754680 1.344740 1.331080
2 1 9.521670 4.025810 1.293010
3 1 9.455030 1.363010 4.109800
4 1 1.411020 1.359120 1.373070
5 1 4.079250 4.136600 1.387860
6 1 6.848420 6.875840 1.359500
7 1 9.511490 9.508770 1.393760
8 1 4.066220 1.359200 4.117920
9 1 6.790090 4.113860 3.993800
10 1 9.511580 6.801250 4.062780
11 1 6.759860 1.363560 6.796540
12 1 9.464410 4.064950 6.795980
13 1 9.513910 1.362150 9.487570
14 1 1.372250 6.798240 1.356720
15 1 4.055390 9.513470 1.356680
16 1 1.360710 4.065300 4.066120
17 1 4.067900 6.771890 4.063720
18 1 6.792930 9.526080 4.105650
19 1 1.291380 1.345190 6.788150
20 1 4.061110 4.067590 6.756260
21 1 6.797650 6.750480 6.761380
22 1 9.509940 9.505660 6.767710
23 1 4.071950 1.339560 9.490090
24 1 6.789880 4.027720 9.521550
25 1 9.524080 6.824270 9.469280
26 1 1.355480 9.502720 4.108600
27 1 1.376140 6.763310 6.782370
28 1 4.098780 9.450070 6.807410
29 1 1.385790 4.029280 9.517640
30 1 4.080480 6.783280 9.508060
31 1 6.805200 9.522360 9.520940
32 1 1.337440 9.495630 9.480920
33 1 5.393340 -0.010924 -0.049932
34 1 8.107730 2.707630 -0.008601
35 1 8.109960 -0.002199 2.746550
36 1 0.040761 -0.014719 0.024483
37 1 2.744760 2.690790 0.041799
38 1 5.493980 5.449100 0.036011
39 1 8.230250 8.217830 0.019822
40 1 2.719770 -0.015285 2.762820
41 1 5.392830 2.704130 2.735990
42 1 8.196830 5.443470 2.631580
43 1 5.427800 0.017566 5.486700
44 1 8.092620 2.737470 5.418330
45 1 8.119760 -0.008667 8.129850
46 1 0.016245 5.421780 -0.024936
47 1 2.685730 8.178300 -0.041821
48 1 -0.014821 2.722930 2.701920
49 1 2.693620 5.447620 2.745510
50 1 5.463060 8.179580 2.720660
51 1 -0.018183 0.007380 5.419040
52 1 2.695870 2.699770 5.401950
53 1 5.414280 5.450990 5.412810
54 1 8.156010 8.092310 5.426350
55 1 2.708680 0.014278 8.136950
56 1 5.417670 2.716710 8.147550
57 1 8.131150 5.440650 8.186330
58 1 0.020965 8.173910 2.726120
59 1 -0.035398 5.419510 5.446840
60 1 2.713820 8.117030 5.473500
61 1 -0.020670 2.697800 8.172360
62 1 2.741660 5.413190 8.113310
63 1 5.460850 8.118220 8.140470
64 1 0.012947 8.146910 8.123780
