LAMMPS DATA file

192 atoms
0 bonds
0 angles
0 dihedrals
0 impropers

2 atom types
0 bond types
0 angle types

0.0 12.990503 xlo xhi
0.0 11.250148 ylo yhi
0.0 15.845291 zlo zhi

Masses

1 69.723
2 14.0067

Atoms

1 1 1.622904 0.988022 2.769123 0 0 0
2 1 1.673567 1.004177 8.024055 0 0 0
3 1 1.506119 1.017722 13.168229 0 0 0
4 1 0.016411 3.640435 2.725865 0 0 0
5 1 12.986748 3.712211 7.924864 0 0 0
6 1 0.076990 3.787925 13.298635 0 0 0
7 1 4.985625 0.960965 2.616533 0 0 0
8 1 3.309980 1.819711 5.244633 0 0 0
9 1 4.944965 0.985794 7.970023 0 0 0
10 1 3.213071 1.802836 10.539812 0 0 0
11 1 4.952889 0.858926 13.047012 0 0 0
12 1 3.327777 1.841874 15.751486 0 0 0
13 1 3.328427 3.661023 2.557271 0 0 0
14 1 1.703055 4.643611 5.340338 0 0 0
15 1 3.294132 3.700849 7.820443 0 0 0
16 1 1.563927 4.610873 10.482294 0 0 0
17 1 3.147729 3.760812 13.249674 0 0 0
18 1 1.608614 4.685124 0.137854 0 0 0
19 1 1.545350 6.638487 2.571691 0 0 0
20 1 1.660966 6.558274 7.778136 0 0 0
21 1 1.619526 6.593712 13.162524 0 0 0
22 1 12.928668 9.399386 2.609086 0 0 0
23 1 12.955233 9.273835 7.918684 0 0 0
24 1 0.031276 9.475662 13.277086 0 0 0
25 1 8.219221 0.926348 2.659949 0 0 0
26 1 6.527078 1.816336 5.159068 0 0 0
27 1 8.055021 0.877275 7.838031 0 0 0
28 1 6.418608 1.940088 10.546942 0 0 0
29 1 8.009944 0.837709 13.246029 0 0 0
30 1 6.396264 1.874725 0.031691 0 0 0
31 1 6.424323 3.854076 2.714615 0 0 0
32 1 4.842470 4.641249 5.402452 0 0 0
33 1 6.465633 3.640210 7.801112 0 0 0
34 1 4.905864 4.699187 10.479758 0 0 0
35 1 6.468491 3.676773 13.282156 0 0 0
36 1 4.947563 4.682649 15.708546 0 0 0
37 1 4.902096 6.668638 2.635706 0 0 0
38 1 3.241390 7.612413 5.345092 0 0 0
39 1 4.863644 6.454323 7.922011 0 0 0
40 1 3.298938 7.404398 10.425567 0 0 0
41 1 4.903525 6.542974 13.173141 0 0 0
42 1 3.258018 7.404398 0.017430 0 0 0
43 1 3.333623 9.329298 2.681023 0 0 0
44 1 1.529762 10.390187 5.379001 0 0 0
45 1 3.313228 9.468912 7.901729 0 0 0
46 1 1.677334 10.352274 10.528562 0 0 0
47 1 3.354018 9.456425 13.114830 0 0 0
48 1 1.640571 10.312673 0.136269 0 0 0
49 1 11.241072 0.894668 2.783225 0 0 0
50 1 9.833421 1.784836 5.131022 0 0 0
51 1 11.472953 0.949614 8.025640 0 0 0
52 1 9.694423 1.879562 10.461536 0 0 0
53 1 11.240163 1.037984 13.209743 0 0 0
54 1 9.639083 1.864037 0.072888 0 0 0
55 1 9.751191 3.846426 2.602114 0 0 0
56 1 8.030729 4.765563 5.169684 0 0 0
57 1 9.834850 3.827300 7.912187 0 0 0
58 1 8.190252 4.765338 10.526343 0 0 0
59 1 9.758466 3.753949 13.133052 0 0 0
60 1 8.228574 4.665774 0.123593 0 0 0
61 1 8.114778 6.542186 2.698453 0 0 0
62 1 6.583587 7.430498 5.392469 0 0 0
63 1 8.149462 6.549611 7.965903 0 0 0
64 1 6.396134 7.547837 10.432222 0 0 0
65 1 8.136472 6.615987 13.331752 0 0 0
66 1 6.593850 7.470886 0.060212 0 0 0
67 1 6.464334 9.362823 2.550458 0 0 0
68 1 4.893263 10.203322 5.247326 0 0 0
69 1 6.464984 9.294985 7.993157 0 0 0
70 1 4.825972 10.286348 10.713001 0 0 0
71 1 6.527208 9.353486 13.114038 0 0 0
72 1 4.992380 10.232685 15.808371 0 0 0
73 1 0.007794 1.785286 5.301834 0 0 0
74 1 12.887748 1.896550 10.551062 0 0 0
75 1 0.081840 1.891600 15.748159 0 0 0
76 1 11.348763 4.672412 5.393895 0 0 0
77 1 11.430863 4.664311 10.452346 0 0 0
78 1 11.377602 4.579598 15.719479 0 0 0
79 1 11.401505 6.559174 2.792257 0 0 0
80 1 9.784187 7.606338 5.396906 0 0 0
81 1 11.419821 6.468835 7.898719 0 0 0
82 1 9.613102 7.540299 10.645183 0 0 0
83 1 11.473732 6.529811 13.212754 0 0 0
84 1 9.782628 7.427573 0.147361 0 0 0
85 1 9.613622 9.306685 2.625406 0 0 0
86 1 8.133874 10.257323 5.433192 0 0 0
87 1 9.728978 9.275072 7.979371 0 0 0
88 1 8.050864 10.267560 10.480709 0 0 0
89 1 9.635576 9.390274 13.124813 0 0 0
90 1 7.997473 10.344174 0.026937 0 0 0
91 1 12.910222 7.542437 5.216270 0 0 0
92 1 12.971407 7.473473 10.597489 0 0 0
93 1 0.074046 7.521399 0.042782 0 0 0
94 1 11.389943 10.235947 5.131180 0 0 0
95 1 11.272379 10.263735 10.639479 0 0 0
96 1 11.344606 10.232910 0.068135 0 0 0
97 2 1.667851 0.967997 4.640610 0 0 0
98 2 1.559380 0.841635 9.873042 0 0 0
99 2 1.741897 0.830452 15.219560 0 0 0
100 2 0.099866 3.768462 4.695593 0 0 0
101 2 0.056271 3.722899 9.799203 0 0 0
102 2 12.901521 3.741574 15.043202 0 0 0
103 2 4.930286 0.994187 4.611296 0 0 0
104 2 3.192286 1.794511 1.984147 0 0 0
105 2 4.836364 1.000712 9.794449 0 0 0
106 2 3.311669 1.902175 7.397057 0 0 0
107 2 4.928077 0.851456 15.307977 0 0 0
108 2 3.134868 1.762786 12.488466 0 0 0
109 2 3.220735 3.701861 4.674202 0 0 0
110 2 1.561458 4.796951 2.040873 0 0 0
111 2 3.291144 3.815150 9.772266 0 0 0
112 2 1.557042 4.689737 7.383747 0 0 0
113 2 3.376881 3.774762 15.039399 0 0 0
114 2 1.729166 4.752175 12.552322 0 0 0
115 2 1.689935 6.587524 4.602423 0 0 0
116 2 1.557951 6.496511 9.852919 0 0 0
117 2 1.586660 6.541849 15.195158 0 0 0
118 2 0.106210 9.288910 4.525573 0 0 0
119 2 12.982481 9.332898 10.045756 0 0 0
120 2 0.098147 9.485225 15.093748 0 0 0
121 2 8.202074 0.963204 4.543162 0 0 0
122 2 6.571116 1.860100 1.868794 0 0 0
123 2 8.137381 0.853774 9.819327 0 0 0
124 2 6.486938 1.872700 7.170786 0 0 0
125 2 8.020337 0.977019 15.345847 0 0 0
126 2 6.536042 1.813524 12.653574 0 0 0
127 2 6.462126 3.794450 4.672935 0 0 0
128 2 4.748159 4.642036 2.114712 0 0 0
129 2 6.536302 3.705461 9.934363 0 0 0
130 2 4.837793 4.613123 7.122617 0 0 0
131 2 6.620610 3.769137 15.227958 0 0 0
132 2 4.814280 4.778050 12.530614 0 0 0
133 2 4.804538 6.459835 4.507193 0 0 0
134 2 3.246976 7.545249 1.930115 0 0 0
135 2 4.744911 6.596524 9.810453 0 0 0
136 2 3.252822 7.595988 7.257618 0 0 0
137 2 4.967049 6.544999 15.313364 0 0 0
138 2 3.214240 7.417448 12.527287 0 0 0
139 2 3.219047 9.483650 4.778940 0 0 0
140 2 1.573799 10.409762 2.081120 0 0 0
141 2 3.361293 9.401974 9.866862 0 0 0
142 2 1.600300 10.362062 7.310066 0 0 0
143 2 3.266722 9.445849 15.078537 0 0 0
144 2 1.563147 10.284436 12.423817 0 0 0
145 2 11.428915 0.898369 4.657248 0 0 0
146 2 9.844723 1.827249 2.062740 0 0 0
147 2 11.360585 0.918327 10.012639 0 0 0
148 2 9.749243 1.869662 7.382321 0 0 0
149 2 11.270691 0.853042 15.073942 0 0 0
150 2 9.782498 1.982614 12.577833 0 0 0
151 2 9.721313 3.639535 4.752478 0 0 0
152 2 8.242604 4.798188 2.119941 0 0 0
153 2 9.660258 3.763962 9.908694 0 0 0
154 2 8.213765 4.658011 7.395789 0 0 0
155 2 9.772885 3.811325 15.263927 0 0 0
156 2 8.242085 4.753075 12.537111 0 0 0
157 2 8.187914 6.668863 4.549658 0 0 0
158 2 6.603203 7.462898 1.885273 0 0 0
159 2 8.102047 6.621162 10.040685 0 0 0
160 2 6.495771 7.471898 7.353958 0 0 0
161 2 8.038523 6.557374 15.216233 0 0 0
162 2 6.588134 7.538724 12.452497 0 0 0
163 2 6.607879 9.397361 4.675787 0 0 0
164 2 4.839092 10.273973 1.837895 0 0 0
165 2 6.479273 9.447424 9.957022 0 0 0
166 2 4.999915 10.335061 7.273781 0 0 0
167 2 6.384053 9.411762 15.162042 0 0 0
168 2 4.809084 10.371962 12.670370 0 0 0
169 2 0.012991 1.864150 2.124061 0 0 0
170 2 12.882292 1.845362 7.119923 0 0 0
171 2 12.872549 1.906675 12.552956 0 0 0
172 2 11.382799 4.638436 2.042775 0 0 0
173 2 11.399686 4.734625 7.304520 0 0 0
174 2 11.353570 4.738787 12.703328 0 0 0
175 2 11.375654 6.625550 4.782743 0 0 0
176 2 9.778341 7.449061 2.018848 0 0 0
177 2 11.402024 6.655025 9.945455 0 0 0
178 2 9.858103 7.445123 7.172212 0 0 0
179 2 11.352141 6.647488 15.142552 0 0 0
180 2 9.640902 7.559650 12.675282 0 0 0
181 2 9.661947 9.414124 4.632054 0 0 0
182 2 8.213116 10.267223 1.923777 0 0 0
183 2 9.670390 9.294085 10.054312 0 0 0
184 2 8.165960 10.381187 7.279326 0 0 0
185 2 9.826406 9.321648 15.252518 0 0 0
186 2 8.210258 10.219747 12.697307 0 0 0
187 2 0.051962 7.404623 2.126438 0 0 0
188 2 0.119513 7.475048 7.292320 0 0 0
189 2 0.081840 7.404848 12.665458 0 0 0
190 2 11.283941 10.387937 2.094272 0 0 0
191 2 11.368899 10.317173 7.225769 0 0 0
192 2 11.476720 10.357674 12.705229 0 0 0
