LAMMPS DATA file

192 atoms
0 bonds
0 angles
0 dihedrals
0 impropers

2 atom types
0 bond types
0 angle types

0.0 12.990503 xlo xhi
0.0 11.250148 ylo yhi
0.0 15.845291 zlo zhi

Masses

1 69.723
2 14.0067

Atoms

1 1 1.589778 0.920240 2.658047 0 0 0
2 1 1.646676 0.831476 7.787643 0 0 0
3 1 1.624073 1.031616 13.118950 0 0 0
4 1 0.039737 3.652248 2.482165 0 0 0
5 1 0.005221 3.784325 7.883666 0 0 0
6 1 12.959492 3.720762 13.279146 0 0 0
7 1 4.900537 0.878817 2.770232 0 0 0
8 1 3.216968 1.846599 5.222291 0 0 0
9 1 4.976402 0.929881 7.919793 0 0 0
10 1 3.324140 1.792936 10.464547 0 0 0
11 1 4.790898 0.825435 13.312262 0 0 0
12 1 3.120319 1.764473 0.102994 0 0 0
13 1 3.317775 3.830450 2.772767 0 0 0
14 1 1.497805 4.617736 5.337803 0 0 0
15 1 3.371685 3.767000 7.936906 0 0 0
16 1 1.738649 4.729450 10.504477 0 0 0
17 1 3.206056 3.847776 13.137964 0 0 0
18 1 1.504040 4.702787 0.042782 0 0 0
19 1 1.685778 6.665263 2.573909 0 0 0
20 1 1.691104 6.513386 8.044496 0 0 0
21 1 1.668111 6.515636 13.143035 0 0 0
22 1 0.056322 9.304098 2.616533 0 0 0
23 1 12.955305 9.310623 7.927716 0 0 0
24 1 0.086330 9.369011 13.240800 0 0 0
25 1 8.040342 1.049459 2.477728 0 0 0
26 1 6.525260 1.948076 5.249069 0 0 0
27 1 8.222079 0.940209 8.063510 0 0 0
28 1 6.523311 1.912413 10.691610 0 0 0
29 1 8.105684 0.967501 13.107541 0 0 0
30 1 6.510970 1.785849 15.773987 0 0 0
31 1 6.506683 3.678236 2.564402 0 0 0
32 1 4.801940 4.698512 5.294387 0 0 0
33 1 6.526559 3.637735 7.818225 0 0 0
34 1 4.865333 4.579148 10.550111 0 0 0
35 1 6.385222 3.693986 13.224638 0 0 0
36 1 4.780765 4.667349 0.118840 0 0 0
37 1 4.963541 6.572224 2.622871 0 0 0
38 1 3.156562 7.497549 5.298190 0 0 0
39 1 4.830259 6.544099 7.814739 0 0 0
40 1 3.334662 7.539624 10.458367 0 0 0
41 1 4.900278 6.608787 13.049389 0 0 0
42 1 3.253082 7.445911 15.842438 0 0 0
43 1 3.370516 9.446749 2.749158 0 0 0
44 1 1.726828 10.267560 5.396748 0 0 0
45 1 3.183972 9.305898 7.817908 0 0 0
46 1 1.717604 10.300186 10.522065 0 0 0
47 1 3.333883 9.309048 13.324939 0 0 0
48 1 1.613291 10.236960 15.766539 0 0 0
49 1 11.372016 0.998788 2.599737 0 0 0
50 1 9.624534 1.984526 5.283612 0 0 0
51 1 11.455935 1.025676 7.976044 0 0 0
52 1 9.747554 1.862012 10.520005 0 0 0
53 1 11.245099 0.873585 13.067453 0 0 0
54 1 9.820041 1.852899 15.697137 0 0 0
55 1 9.695202 3.833601 2.772134 0 0 0
56 1 8.099709 4.769950 5.270144 0 0 0
57 1 9.849010 3.693874 7.925656 0 0 0
58 1 8.052813 4.763763 10.566274 0 0 0
59 1 9.703906 3.695449 13.093914 0 0 0
60 1 8.144786 4.757575 0.104579 0 0 0
61 1 8.208699 6.502923 2.638082 0 0 0
62 1 6.539289 7.407998 5.289950 0 0 0
63 1 8.066583 6.535999 7.927874 0 0 0
64 1 6.476156 7.439836 10.408613 0 0 0
65 1 7.995915 6.511811 13.260607 0 0 0
66 1 6.451084 7.556500 0.088734 0 0 0
67 1 6.379246 9.264722 2.707643 0 0 0
68 1 4.914177 10.331799 5.409107 0 0 0
69 1 6.408865 9.481287 7.828366 0 0 0
70 1 4.751406 10.251698 10.623950 0 0 0
71 1 6.456930 9.422224 13.227015 0 0 0
72 1 4.769723 10.345636 0.068135 0 0 0
73 1 0.094831 1.767623 5.165723 0 0 0
74 1 0.006495 1.813524 10.666257 0 0 0
75 1 12.972317 1.829837 0.019014 0 0 0
76 1 11.326290 4.767925 5.208664 0 0 0
77 1 11.351362 4.747450 10.520956 0 0 0
78 1 11.298880 4.663749 15.743405 0 0 0
79 1 11.351232 6.589212 2.550458 0 0 0
80 1 9.839397 7.552225 5.219280 0 0 0
81 1 11.447751 6.553324 7.972875 0 0 0
82 1 9.687798 7.552000 10.632348 0 0 0
83 1 11.420731 6.497186 13.094707 0 0 0
84 1 9.751581 7.547049 15.681609 0 0 0
85 1 9.662596 9.428187 2.792416 0 0 0
86 1 8.040342 10.252485 5.224034 0 0 0
87 1 9.649086 9.338298 7.938174 0 0 0
88 1 8.108932 10.400762 10.436818 0 0 0
89 1 9.640512 9.350786 13.261241 0 0 0
90 1 8.220001 10.210522 15.773987 0 0 0
91 1 0.118214 7.558862 5.135459 0 0 0
92 1 12.868003 7.596213 10.516995 0 0 0
93 1 12.864755 7.500924 0.136269 0 0 0
94 1 11.479058 10.212210 5.407681 0 0 0
95 1 11.367600 10.243260 10.595746 0 0 0
96 1 11.464249 10.294561 0.131516 0 0 0
97 2 1.631737 1.015000 4.709537 0 0 0
98 2 1.662525 1.034102 9.971758 0 0 0
99 2 1.553274 0.983274 15.107534 0 0 0
100 2 0.010481 3.722449 4.669132 0 0 0
101 2 0.126685 3.812338 9.977463 0 0 0
102 2 0.089017 3.696461 15.178362 0 0 0
103 2 4.835845 0.963834 4.566613 0 0 0
104 2 3.282051 1.937838 2.109167 0 0 0
105 2 4.917945 0.873248 9.812672 0 0 0
106 2 3.224373 1.935138 7.358711 0 0 0
107 2 4.897290 0.861019 15.091530 0 0 0
108 2 3.340898 1.878437 12.539804 0 0 0
109 2 3.119150 3.808063 4.631420 0 0 0
110 2 1.608744 4.794363 1.938671 0 0 0
111 2 3.169033 3.745287 10.031970 0 0 0
112 2 1.639402 4.631124 7.193445 0 0 0
113 2 3.264124 3.816050 15.038765 0 0 0
114 2 1.685388 4.665324 12.616179 0 0 0
115 2 1.660446 6.595849 4.772443 0 0 0
116 2 1.627840 6.452973 10.012956 0 0 0
117 2 1.656679 6.586962 15.255846 0 0 0
118 2 0.009111 9.276422 4.644730 0 0 0
119 2 12.877981 9.431787 9.761491 0 0 0
120 2 0.119157 9.346736 15.348065 0 0 0
121 2 8.186225 0.843761 4.631103 0 0 0
122 2 6.590602 1.910838 1.849462 0 0 0
123 2 8.229484 0.833861 10.064295 0 0 0
124 2 6.547084 1.956513 7.162864 0 0 0
125 2 8.168558 1.015922 15.104840 0 0 0
126 2 6.397823 1.774036 12.593837 0 0 0
127 2 6.385612 3.810988 4.645205 0 0 0
128 2 4.765956 4.739012 1.960855 0 0 0
129 2 6.539679 3.819088 10.032287 0 0 0
130 2 4.915087 4.761625 7.416230 0 0 0
131 2 6.560074 3.768350 15.333963 0 0 0
132 2 4.797393 4.621448 12.703486 0 0 0
133 2 4.875726 6.503711 4.591014 0 0 0
134 2 3.173060 7.454686 2.045785 0 0 0
135 2 4.903265 6.473335 9.841035 0 0 0
136 2 3.273997 7.583050 7.367902 0 0 0
137 2 4.838962 6.558724 15.278663 0 0 0
138 2 3.174619 7.422510 12.469451 0 0 0
139 2 3.371555 9.384311 4.679273 0 0 0
140 2 1.668760 10.338211 1.848829 0 0 0
141 2 3.237493 9.341561 9.942128 0 0 0
142 2 1.652912 10.268573 7.375349 0 0 0
143 2 3.162668 9.263822 15.100879 0 0 0
144 2 1.632906 10.277235 12.443782 0 0 0
145 2 11.395789 0.889110 4.564394 0 0 0
146 2 9.743007 1.881475 1.832191 0 0 0
147 2 11.267443 0.856316 9.991882 0 0 0
148 2 9.666753 1.875850 7.183462 0 0 0
149 2 11.408780 0.969414 15.301322 0 0 0
150 2 9.840046 1.975526 12.647394 0 0 0
151 2 9.632848 3.705011 4.501964 0 0 0
152 2 8.171806 4.676912 1.938513 0 0 0
153 2 9.822249 3.650448 9.809978 0 0 0
154 2 8.061776 4.744525 7.238287 0 0 0
155 2 9.695722 3.736174 15.143186 0 0 0
156 2 8.108932 4.667799 12.691444 0 0 0
157 2 8.235459 6.553661 4.585944 0 0 0
158 2 6.452773 7.497549 2.097600 0 0 0
159 2 8.006827 6.568512 9.854503 0 0 0
160 2 6.454202 7.552112 7.373448 0 0 0
161 2 8.173105 6.485710 15.341727 0 0 0
162 2 6.510840 7.493836 12.516512 0 0 0
163 2 6.387301 9.324798 4.584835 0 0 0
164 2 4.948602 10.202759 1.900484 0 0 0
165 2 6.543836 9.270910 9.999488 0 0 0
166 2 4.913268 10.370049 7.273464 0 0 0
167 2 6.622688 9.302635 15.170598 0 0 0
168 2 4.905344 10.351711 12.681937 0 0 0
169 2 0.106522 1.776848 2.029623 0 0 0
170 2 12.985567 1.827249 7.338113 0 0 0
171 2 0.001299 1.914888 12.645493 0 0 0
172 2 11.414365 4.601086 2.131192 0 0 0
173 2 11.323952 4.646649 7.321317 0 0 0
174 2 11.274977 4.637649 12.600175 0 0 0
175 2 11.377602 6.514061 4.777989 0 0 0
176 2 9.762233 7.551212 2.106314 0 0 0
177 2 11.408780 6.567499 9.831052 0 0 0
178 2 9.787954 7.580912 7.259203 0 0 0
179 2 11.473862 6.464110 15.186602 0 0 0
180 2 9.850699 7.497774 12.544717 0 0 0
181 2 9.684160 9.283060 4.679590 0 0 0
182 2 8.021766 10.224585 1.967985 0 0 0
183 2 9.756647 9.479150 9.931511 0 0 0
184 2 8.008905 10.281735 7.115645 0 0 0
185 2 9.733524 9.477687 15.341886 0 0 0
186 2 8.026312 10.261485 12.698891 0 0 0
187 2 0.070149 7.523874 2.094589 0 0 0
188 2 0.046766 7.595425 7.418290 0 0 0
189 2 12.875667 7.393485 12.616179 0 0 0
190 2 11.403064 10.305473 2.004271 0 0 0
191 2 11.261337 10.384562 7.228146 0 0 0
192 2 11.473732 10.388949 12.579101 0 0 0
