LAMMPS DATA file

64 atoms

1 atom types

0.000000 10.862000 xlo xhi
0.000000 10.862000 ylo yhi
0.000000 10.862000 zlo zhi

Masses

1 28.0855

Atoms

1 1 6.787210 1.372950 1.327610
2 1 9.510840 4.057620 1.329820
3 1 9.476150 1.340300 4.093460
4 1 1.334010 1.366650 1.367530
5 1 4.072080 4.123880 1.366510
6 1 6.805120 6.814700 1.364050
7 1 9.488810 9.499250 1.382140
8 1 4.053010 1.338390 4.101300
9 1 6.760060 4.116250 4.061100
10 1 9.514550 6.792700 4.066300
11 1 6.756390 1.365310 6.802620
12 1 9.470730 4.083280 6.796370
13 1 9.469660 1.353610 9.512280
14 1 1.404560 6.765650 1.366920
15 1 4.093710 9.520780 1.355310
16 1 1.365260 4.103070 4.060120
17 1 4.087820 6.783430 4.062130
18 1 6.794930 9.514270 4.117310
19 1 1.323440 1.353860 6.803380
20 1 4.066230 4.031560 6.787010
21 1 6.802840 6.768000 6.763220
22 1 9.549870 9.507540 6.831470
23 1 4.081550 1.375330 9.491570
24 1 6.795830 4.042490 9.459420
25 1 9.514900 6.816680 9.477560
26 1 1.366870 9.493170 4.086230
27 1 1.330820 6.792870 6.782000
28 1 4.095590 9.503020 6.780210
29 1 1.380200 4.056050 9.496640
30 1 4.076860 6.770570 9.512070
31 1 6.804710 9.499090 9.564140
32 1 1.337220 9.504430 9.474510
33 1 5.420770 0.036586 0.009976
34 1 8.187910 2.722400 -0.011175
35 1 8.140320 0.004317 2.683710
36 1 -0.002851 -0.036323 0.026881
37 1 2.786010 2.673840 0.007403
38 1 5.517790 5.416450 -0.006063
39 1 8.190540 8.135220 -0.023631
40 1 2.702050 0.014467 2.739040
41 1 5.395260 2.712390 2.729400
42 1 8.191420 5.436160 2.675140
43 1 5.402340 0.005242 5.435840
44 1 8.098230 2.694900 5.392100
45 1 8.111170 -0.020619 8.142670
46 1 0.001688 5.453800 0.007486
47 1 2.697230 8.173250 0.007734
48 1 -0.020556 2.724600 2.735200
49 1 2.715930 5.448610 2.745390
50 1 5.407210 8.187570 2.751970
51 1 0.023573 -0.027522 5.428750
52 1 2.700150 2.661480 5.458730
53 1 5.401870 5.410380 5.459430
54 1 8.160700 8.144670 5.442810
55 1 2.711310 -0.024465 8.154880
56 1 5.397640 2.694450 8.144790
57 1 8.111160 5.454230 8.123420
58 1 0.004390 8.169560 2.699400
59 1 0.000851 5.435860 5.401540
60 1 2.716370 8.132520 5.388540
61 1 0.008684 2.739350 8.133090
62 1 2.699780 5.414130 8.126380
63 1 5.473550 8.165510 8.138250
64 1 0.011681 8.156230 8.144650
