LAMMPS DATA file

192 atoms
0 bonds
0 angles
0 dihedrals
0 impropers

2 atom types
0 bond types
0 angle types

0.0 12.990503 xlo xhi
0.0 11.250148 ylo yhi
0.0 15.845291 zlo zhi

Masses

1 69.723
2 14.0067

Atoms

1 1 1.747223 0.987448 2.681815 0 0 0
2 1 1.505210 0.959368 7.914564 0 0 0
3 1 1.541193 1.026115 13.089002 0 0 0
4 1 12.979911 3.851488 2.664861 0 0 0
5 1 12.926148 3.810875 8.047982 0 0 0
6 1 12.965060 3.847213 13.253635 0 0 0
7 1 4.983157 0.989237 2.664544 0 0 0
8 1 3.146430 1.939301 5.312134 0 0 0
9 1 4.833117 0.965251 7.909018 0 0 0
10 1 3.280362 1.906788 10.680835 0 0 0
11 1 4.760760 0.970899 13.236680 0 0 0
12 1 3.229569 1.809136 0.039613 0 0 0
13 1 3.132270 3.799175 2.695759 0 0 0
14 1 1.509886 4.715725 5.365849 0 0 0
15 1 3.234765 3.673173 8.051467 0 0 0
16 1 1.741117 4.661949 10.675448 0 0 0
17 1 3.309720 3.853851 13.304974 0 0 0
18 1 1.598092 4.688724 0.041198 0 0 0
19 1 1.695001 6.655700 2.699721 0 0 0
20 1 1.655899 6.667963 7.783682 0 0 0
21 1 1.544571 6.619362 13.208634 0 0 0
22 1 0.104497 9.371598 2.786394 0 0 0
23 1 12.919431 9.423687 7.953068 0 0 0
24 1 0.003721 9.413449 13.332069 0 0 0
25 1 8.032158 0.877422 2.725548 0 0 0
26 1 6.435755 1.924450 5.302310 0 0 0
27 1 8.221300 0.962945 8.022946 0 0 0
28 1 6.563971 1.827699 10.642965 0 0 0
29 1 8.041381 1.020107 13.231293 0 0 0
30 1 6.477844 1.840074 15.698246 0 0 0
31 1 6.448096 3.705799 2.721587 0 0 0
32 1 4.993290 4.597711 5.420199 0 0 0
33 1 6.593460 3.763962 7.805073 0 0 0
34 1 4.929376 4.596586 10.565798 0 0 0
35 1 6.370153 3.665073 13.071731 0 0 0
36 1 4.779076 4.647549 0.090318 0 0 0
37 1 4.994589 6.532736 2.765637 0 0 0
38 1 3.284129 7.406985 5.283612 0 0 0
39 1 4.774789 6.460848 7.829158 0 0 0
40 1 3.173580 7.516224 10.536484 0 0 0
41 1 4.798432 6.559286 13.130042 0 0 0
42 1 3.242430 7.541537 15.744039 0 0 0
43 1 3.159160 9.459462 2.682132 0 0 0
44 1 1.643948 10.329436 5.237661 0 0 0
45 1 3.316216 9.275072 7.879863 0 0 0
46 1 1.643818 10.355986 10.579742 0 0 0
47 1 3.224633 9.327498 13.268371 0 0 0
48 1 1.698898 10.397837 0.047536 0 0 0
49 1 11.318625 0.907842 2.620177 0 0 0
50 1 9.850699 1.917138 5.368226 0 0 0
51 1 11.409819 0.837832 7.779245 0 0 0
52 1 9.666493 1.879112 10.427627 0 0 0
53 1 11.389684 0.971664 13.154760 0 0 0
54 1 9.786136 1.858749 0.104579 0 0 0
55 1 9.616999 3.806375 2.736799 0 0 0
56 1 8.018258 4.791101 5.250654 0 0 0
57 1 9.752360 3.742587 7.847380 0 0 0
58 1 8.182718 4.585448 10.563580 0 0 0
59 1 9.655711 3.822238 13.283424 0 0 0
60 1 8.029040 4.766238 15.773828 0 0 0
61 1 8.177002 6.563449 2.712080 0 0 0
62 1 6.416919 7.570112 5.386607 0 0 0
63 1 8.029690 6.606537 7.956396 0 0 0
64 1 6.365476 7.499124 10.530939 0 0 0
65 1 8.003449 6.577962 13.315115 0 0 0
66 1 6.613465 7.505536 0.083980 0 0 0
67 1 6.375219 9.293635 2.485968 0 0 0
68 1 4.952759 10.273298 5.406255 0 0 0
69 1 6.605541 9.474537 7.902363 0 0 0
70 1 4.791677 10.231222 10.551854 0 0 0
71 1 6.382234 9.457550 13.092171 0 0 0
72 1 4.845718 10.359249 15.810272 0 0 0
73 1 0.066252 1.955838 5.383596 0 0 0
74 1 0.045467 1.879675 10.701434 0 0 0
75 1 0.063653 1.925013 15.721222 0 0 0
76 1 11.389554 4.623811 5.128804 0 0 0
77 1 11.496336 4.660036 10.703811 0 0 0
78 1 11.346815 4.612111 15.764321 0 0 0
79 1 11.318106 6.493811 2.514014 0 0 0
80 1 9.858753 7.486636 5.433825 0 0 0
81 1 11.344477 6.565474 7.806816 0 0 0
82 1 9.730926 7.604200 10.407504 0 0 0
83 1 11.237045 6.569749 13.290079 0 0 0
84 1 9.676106 7.593850 0.019014 0 0 0
85 1 9.831343 9.263597 2.683083 0 0 0
86 1 8.056580 10.364199 5.225301 0 0 0
87 1 9.651684 9.343811 7.762766 0 0 0
88 1 7.991498 10.287586 10.680677 0 0 0
89 1 9.857843 9.337061 13.162208 0 0 0
90 1 8.115817 10.338661 15.717261 0 0 0
91 1 12.940490 7.566512 5.267925 0 0 0
92 1 12.926850 7.512511 10.704920 0 0 0
93 1 12.902817 7.515774 0.058628 0 0 0
94 1 11.416444 10.395699 5.127853 0 0 0
95 1 11.252504 10.318411 10.514935 0 0 0
96 1 11.375654 10.357899 15.788564 0 0 0
97 2 1.747612 0.971180 4.768323 0 0 0
98 2 1.660056 0.838046 9.885085 0 0 0
99 2 1.616798 1.040087 15.213222 0 0 0
100 2 12.870145 3.818300 4.575328 0 0 0
101 2 12.941295 3.754737 9.934680 0 0 0
102 2 0.036632 3.761937 15.039716 0 0 0
103 2 4.855071 0.874699 4.688146 0 0 0
104 2 3.285688 1.856837 2.109325 0 0 0
105 2 4.890924 0.881134 9.889363 0 0 0
106 2 3.221775 1.873712 7.238763 0 0 0
107 2 4.965360 1.029490 15.246339 0 0 0
108 2 3.217358 1.958651 12.447585 0 0 0
109 2 3.145131 3.670248 4.572634 0 0 0
110 2 1.705913 4.723712 1.902861 0 0 0
111 2 3.300887 3.809975 9.920578 0 0 0
112 2 1.534698 4.628423 7.170628 0 0 0
113 2 3.320113 3.855876 15.145721 0 0 0
114 2 1.720852 4.610648 12.649454 0 0 0
115 2 1.568863 6.461748 4.528267 0 0 0
116 2 1.669410 6.601699 9.934839 0 0 0
117 2 1.528333 6.605525 15.038131 0 0 0
118 2 12.889637 9.476450 4.549500 0 0 0
119 2 0.117790 9.376774 9.889204 0 0 0
120 2 12.924649 9.457775 15.155545 0 0 0
121 2 8.012802 0.899573 4.714608 0 0 0
122 2 6.580469 1.775161 1.924569 0 0 0
123 2 8.202593 0.942065 9.983484 0 0 0
124 2 6.473038 1.815099 7.155416 0 0 0
125 2 8.061517 0.888312 15.164735 0 0 0
126 2 6.373531 1.858524 12.408130 0 0 0
127 2 6.608919 3.849913 4.649642 0 0 0
128 2 4.941717 4.640461 1.857227 0 0 0
129 2 6.591771 3.716261 9.960191 0 0 0
130 2 4.834805 4.612223 7.303728 0 0 0
131 2 6.386391 3.850813 15.230335 0 0 0
132 2 4.814151 4.687487 12.612851 0 0 0
133 2 4.947693 6.564911 4.495943 0 0 0
134 2 3.292183 7.456148 2.129132 0 0 0
135 2 4.882221 6.481660 10.039893 0 0 0
136 2 3.132530 7.458061 7.181878 0 0 0
137 2 4.966659 6.646138 15.305283 0 0 0
138 2 3.178776 7.468411 12.550104 0 0 0
139 2 3.260097 9.370586 4.733622 0 0 0
140 2 1.545350 10.230772 1.838371 0 0 0
141 2 3.321412 9.441237 9.957339 0 0 0
142 2 1.673696 10.209622 7.405613 0 0 0
143 2 3.273347 9.293972 15.275177 0 0 0
144 2 1.653951 10.329999 12.551847 0 0 0
145 2 11.452817 0.902014 4.746932 0 0 0
146 2 9.693514 1.916125 1.829339 0 0 0
147 2 11.324341 0.927923 9.842144 0 0 0
148 2 9.812766 1.792936 7.379469 0 0 0
149 2 11.441646 0.978459 15.155228 0 0 0
150 2 9.838228 1.803286 12.458518 0 0 0
151 2 9.863040 3.735162 4.657248 0 0 0
152 2 8.185186 4.730800 1.968302 0 0 0
153 2 9.773015 3.675198 9.955913 0 0 0
154 2 8.053592 4.691087 7.288992 0 0 0
155 2 9.800425 3.712099 15.346005 0 0 0
156 2 8.071909 4.613686 12.642165 0 0 0
157 2 8.002670 6.628250 4.741703 0 0 0
158 2 6.393016 7.426673 1.832349 0 0 0
159 2 8.063335 6.451735 9.991882 0 0 0
160 2 6.593979 7.566625 7.193603 0 0 0
161 2 8.151151 6.461973 15.265670 0 0 0
162 2 6.453032 7.540974 12.493219 0 0 0
163 2 6.420816 9.411762 4.469006 0 0 0
164 2 4.936781 10.365999 2.003479 0 0 0
165 2 6.624117 9.348536 10.020245 0 0 0
166 2 4.990042 10.241572 7.197248 0 0 0
167 2 6.412502 9.473187 15.247448 0 0 0
168 2 4.830908 10.308286 12.547886 0 0 0
169 2 12.958806 1.859987 2.112177 0 0 0
170 2 12.942828 1.922200 7.362514 0 0 0
171 2 0.122111 1.882150 12.518255 0 0 0
172 2 11.455156 4.612448 1.977968 0 0 0
173 2 11.280433 4.623136 7.250488 0 0 0
174 2 11.363962 4.793913 12.596055 0 0 0
175 2 11.486852 6.623862 4.755330 0 0 0
176 2 9.619338 7.597225 1.903812 0 0 0
177 2 11.278745 6.666388 9.897285 0 0 0
178 2 9.634147 7.581587 7.117863 0 0 0
179 2 11.468016 6.631400 15.154594 0 0 0
180 2 9.783668 7.464586 12.460103 0 0 0
181 2 9.833421 9.282047 4.754696 0 0 0
182 2 8.162323 10.239885 2.021542 0 0 0
183 2 9.871224 9.337623 9.892373 0 0 0
184 2 8.119974 10.212547 7.284397 0 0 0
185 2 9.729237 9.304210 15.068713 0 0 0
186 2 8.024364 10.413700 12.564840 0 0 0
187 2 12.883981 7.573600 1.978601 0 0 0
188 2 0.106522 7.431510 7.247319 0 0 0
189 2 0.049364 7.586200 12.538854 0 0 0
190 2 11.257960 10.353286 1.856593 0 0 0
191 2 11.251335 10.422362 7.183621 0 0 0
192 2 11.447881 10.232010 12.640897 0 0 0
