LAMMPS DATA file

64 atoms

1 atom types

0.000000 10.862000 xlo xhi
0.000000 10.862000 ylo yhi
0.000000 10.862000 zlo zhi

Masses

1 28.0855

Atoms

1 1 6.765580 1.352400 1.334460
2 1 9.548850 4.024080 1.304480
3 1 9.453480 1.354490 4.103240
4 1 1.397680 1.366830 1.380070
5 1 4.088580 4.142100 1.388890
6 1 6.838450 6.887680 1.367460
7 1 9.504430 9.519790 1.391400
8 1 4.054320 1.356970 4.127690
9 1 6.788140 4.113480 3.993730
10 1 9.502390 6.813700 4.070600
11 1 6.763910 1.363280 6.785170
12 1 9.455070 4.062840 6.780030
13 1 9.519580 1.355100 9.481000
14 1 1.379800 6.796520 1.352440
15 1 4.057680 9.512840 1.364330
16 1 1.359180 4.055560 4.068830
17 1 4.069330 6.785530 4.069090
18 1 6.790950 9.530390 4.094240
19 1 1.298200 1.326190 6.793270
20 1 4.049450 4.055800 6.773360
21 1 6.792260 6.757310 6.750610
22 1 9.517440 9.505310 6.769200
23 1 4.064150 1.327820 9.490870
24 1 6.799590 4.021860 9.511900
25 1 9.522210 6.824920 9.457060
26 1 1.358410 9.510750 4.102680
27 1 1.370880 6.763860 6.771430
28 1 4.090940 9.446660 6.803270
29 1 1.400630 4.032860 9.535930
30 1 4.078370 6.794420 9.522350
31 1 6.796250 9.525340 9.531020
32 1 1.339670 9.493290 9.485540
33 1 5.394890 -0.001726 -0.045049
34 1 8.109660 2.702690 -0.013822
35 1 8.097840 0.005081 2.756690
36 1 0.032315 -0.014613 0.026885
37 1 2.749490 2.688600 0.035462
38 1 5.500060 5.451840 0.025038
39 1 8.228300 8.191310 0.019541
40 1 2.715640 -0.019496 2.738200
41 1 5.393210 2.721210 2.727810
42 1 8.191420 5.436230 2.626980
43 1 5.447870 0.009056 5.492550
44 1 8.096870 2.737100 5.406870
45 1 8.112720 -0.018057 8.135350
46 1 0.019867 5.416840 -0.031982
47 1 2.693570 8.170480 -0.053868
48 1 -0.033047 2.723130 2.717090
49 1 2.700230 5.456250 2.743420
50 1 5.462380 8.191100 2.725600
51 1 -0.018369 0.016262 5.426560
52 1 2.678550 2.695220 5.401650
53 1 5.420780 5.444760 5.421780
54 1 8.169880 8.098930 5.440720
55 1 2.707400 0.015741 8.128760
56 1 5.408270 2.726870 8.142180
57 1 8.122760 5.448940 8.185780
58 1 0.031121 8.161700 2.722690
59 1 -0.036981 5.406530 5.452710
60 1 2.733080 8.104470 5.467220
61 1 -0.029838 2.713250 8.173540
62 1 2.733660 5.409520 8.114510
63 1 5.468940 8.112220 8.142450
64 1 0.017618 8.154570 8.127050
