LAMMPS DATA file

192 atoms
0 bonds
0 angles
0 dihedrals
0 impropers

2 atom types
0 bond types
0 angle types

0.0 12.990503 xlo xhi
0.0 11.250148 ylo yhi
0.0 15.845291 zlo zhi

Masses

1 69.723
2 14.0067

Atoms

1 1 1.684868 0.961359 2.687995 0 0 0
2 1 1.711239 0.843986 7.978896 0 0 0
3 1 1.583023 0.994446 13.082030 0 0 0
4 1 0.057409 3.643136 2.605124 0 0 0
5 1 0.093055 3.822350 7.864335 0 0 0
6 1 0.039511 3.725374 13.180588 0 0 0
7 1 4.897680 1.047513 2.500545 0 0 0
8 1 3.210343 1.808911 5.245583 0 0 0
9 1 4.835325 1.002039 7.931519 0 0 0
10 1 3.302056 1.880687 10.584654 0 0 0
11 1 4.798822 0.978594 13.146362 0 0 0
12 1 3.296860 1.981939 0.060212 0 0 0
13 1 3.273347 3.676098 2.744087 0 0 0
14 1 1.621215 4.633486 5.182519 0 0 0
15 1 3.356097 3.811663 8.012488 0 0 0
16 1 1.527293 4.650024 10.507012 0 0 0
17 1 3.176308 3.861726 13.112612 0 0 0
18 1 1.564576 4.653511 15.797755 0 0 0
19 1 1.634465 6.573574 2.510686 0 0 0
20 1 1.620046 6.534536 7.928033 0 0 0
21 1 1.691883 6.578524 13.091854 0 0 0
22 1 12.911655 9.269447 2.632537 0 0 0
23 1 12.891008 9.387236 7.875743 0 0 0
24 1 12.968104 9.331323 13.157612 0 0 0
25 1 8.064894 1.021581 2.680706 0 0 0
26 1 6.560594 1.946726 5.374564 0 0 0
27 1 8.090485 0.834964 7.766411 0 0 0
28 1 6.591901 1.966413 10.500040 0 0 0
29 1 8.186875 0.971012 13.301329 0 0 0
30 1 6.586575 1.824887 15.717578 0 0 0
31 1 6.523701 3.672723 2.493890 0 0 0
32 1 4.839092 4.785588 5.182202 0 0 0
33 1 6.476935 3.750799 7.822186 0 0 0
34 1 4.904564 4.579260 10.658810 0 0 0
35 1 6.453162 3.677448 13.126873 0 0 0
36 1 4.917685 4.675787 0.120424 0 0 0
37 1 4.815190 6.575599 2.571374 0 0 0
38 1 3.363241 7.557737 5.300408 0 0 0
39 1 4.854811 6.632412 7.955762 0 0 0
40 1 3.211642 7.400798 10.636944 0 0 0
41 1 5.001084 6.581562 13.105323 0 0 0
42 1 3.316865 7.611288 15.784286 0 0 0
43 1 3.310110 9.431674 2.710020 0 0 0
44 1 1.669150 10.422925 5.257309 0 0 0
45 1 3.300627 9.458225 7.779087 0 0 0
46 1 1.542362 10.201409 10.673705 0 0 0
47 1 3.263344 9.282722 13.174884 0 0 0
48 1 1.507158 10.245397 15.727085 0 0 0
49 1 11.356428 1.005279 2.512271 0 0 0
50 1 9.712610 1.952238 5.255249 0 0 0
51 1 11.494387 0.906773 8.002981 0 0 0
52 1 9.786655 1.794061 10.430163 0 0 0
53 1 11.489840 0.858386 13.153334 0 0 0
54 1 9.657140 1.936601 0.074473 0 0 0
55 1 9.665194 3.836976 2.616374 0 0 0
56 1 8.103086 4.728887 5.153205 0 0 0
57 1 9.756907 3.855763 7.949899 0 0 0
58 1 8.159075 4.725512 10.537118 0 0 0
59 1 9.745476 3.689261 13.215289 0 0 0
60 1 8.142577 4.758025 0.095072 0 0 0
61 1 8.045019 6.608000 2.755971 0 0 0
62 1 6.434196 7.577087 5.372980 0 0 0
63 1 8.084250 6.614750 7.938966 0 0 0
64 1 6.447706 7.461098 10.525393 0 0 0
65 1 8.015530 6.511136 13.050181 0 0 0
66 1 6.537341 7.591600 15.800448 0 0 0
67 1 6.432378 9.459687 2.713348 0 0 0
68 1 4.810773 10.281848 5.363314 0 0 0
69 1 6.586185 9.412999 7.846429 0 0 0
70 1 4.797263 10.320773 10.601767 0 0 0
71 1 6.375739 9.473525 13.284375 0 0 0
72 1 4.843769 10.343611 0.014261 0 0 0
73 1 12.952051 1.810936 5.433509 0 0 0
74 1 0.053261 1.880687 10.530780 0 0 0
75 1 12.915028 1.943688 15.809322 0 0 0
76 1 11.263546 4.771525 5.313084 0 0 0
77 1 11.398907 4.641924 10.616345 0 0 0
78 1 11.347205 4.739462 0.036444 0 0 0
79 1 11.474512 6.509898 2.479471 0 0 0
80 1 9.802114 7.569775 5.237185 0 0 0
81 1 11.319795 6.651088 7.906958 0 0 0
82 1 9.852517 7.538837 10.439036 0 0 0
83 1 11.355129 6.525986 13.295625 0 0 0
84 1 9.749632 7.409573 15.825325 0 0 0
85 1 9.862910 9.363273 2.527165 0 0 0
86 1 8.140629 10.414937 5.386290 0 0 0
87 1 9.635446 9.455525 8.057489 0 0 0
88 1 8.246761 10.382537 10.478174 0 0 0
89 1 9.682212 9.286322 13.132260 0 0 0
90 1 8.031119 10.365437 15.821681 0 0 0
91 1 0.062354 7.612413 5.379159 0 0 0
92 1 0.019486 7.498449 10.473579 0 0 0
93 1 12.900479 7.549187 0.026937 0 0 0
94 1 11.370328 10.389512 5.207713 0 0 0
95 1 11.366950 10.224135 10.503526 0 0 0
96 1 11.407351 10.397387 0.077642 0 0 0
97 2 1.704874 0.932637 4.558849 0 0 0
98 2 1.611732 0.889662 9.863535 0 0 0
99 2 1.653171 0.918282 15.324139 0 0 0
100 2 12.944019 3.806488 4.533655 0 0 0
101 2 12.939493 3.698036 9.970015 0 0 0
102 2 12.903949 3.757100 15.095967 0 0 0
103 2 4.782324 0.995323 4.758499 0 0 0
104 2 3.174879 1.800474 2.080962 0 0 0
105 2 4.900408 0.999047 9.925807 0 0 0
106 2 3.193975 1.895425 7.161279 0 0 0
107 2 4.838053 1.027960 15.162200 0 0 0
108 2 3.333363 1.981601 12.568960 0 0 0
109 2 3.295431 3.760362 4.705893 0 0 0
110 2 1.661096 4.607836 2.093321 0 0 0
111 2 3.151496 3.791975 10.048291 0 0 0
112 2 1.612251 4.600073 7.128955 0 0 0
113 2 3.319333 3.638185 15.224314 0 0 0
114 2 1.586660 4.663861 12.516829 0 0 0
115 2 1.602898 6.636125 4.698604 0 0 0
116 2 1.729036 6.626225 9.853869 0 0 0
117 2 1.546260 6.597424 15.066653 0 0 0
118 2 0.100279 9.394774 4.716192 0 0 0
119 2 0.025107 9.301848 9.775910 0 0 0
120 2 0.085415 9.297122 15.051600 0 0 0
121 2 8.142447 0.929757 4.615099 0 0 0
122 2 6.601644 1.798449 2.079377 0 0 0
123 2 8.163882 1.031785 9.928342 0 0 0
124 2 6.417698 1.819936 7.306580 0 0 0
125 2 8.086848 0.905772 15.041142 0 0 0
126 2 6.564751 1.815886 12.602235 0 0 0
127 2 6.559814 3.801425 4.726650 0 0 0
128 2 4.933793 4.720112 1.859128 0 0 0
129 2 6.625027 3.731674 9.774484 0 0 0
130 2 4.934053 4.799988 7.283446 0 0 0
131 2 6.519414 3.672273 15.233821 0 0 0
132 2 4.883390 4.639111 12.599700 0 0 0
133 2 4.999785 6.564799 4.533655 0 0 0
134 2 3.282051 7.541312 1.971946 0 0 0
135 2 4.763488 6.672913 9.762759 0 0 0
136 2 3.310370 7.519712 7.412585 0 0 0
137 2 4.845458 6.565699 15.283575 0 0 0
138 2 3.220476 7.423748 12.571654 0 0 0
139 2 3.272827 9.447312 4.783376 0 0 0
140 2 1.582893 10.200284 1.847719 0 0 0
141 2 3.238792 9.484775 9.762917 0 0 0
142 2 1.589128 10.238422 7.384064 0 0 0
143 2 3.283480 9.462162 15.274543 0 0 0
144 2 1.620046 10.215585 12.555333 0 0 0
145 2 11.342268 0.955891 4.774820 0 0 0
146 2 9.863040 1.987114 1.990485 0 0 0
147 2 11.424368 0.857824 9.809502 0 0 0
148 2 9.674677 1.969451 7.135293 0 0 0
149 2 11.417613 0.867465 15.291022 0 0 0
150 2 9.697281 1.942563 12.649771 0 0 0
151 2 9.695332 3.683299 4.519711 0 0 0
152 2 8.225976 4.734175 1.865941 0 0 0
153 2 9.779381 3.671036 9.776227 0 0 0
154 2 8.182718 4.618523 7.109623 0 0 0
155 2 9.618558 3.728074 15.219402 0 0 0
156 2 8.001371 4.575773 12.573872 0 0 0
157 2 8.080223 6.486610 4.666121 0 0 0
158 2 6.508502 7.578775 1.954833 0 0 0
159 2 8.003189 6.674713 9.764026 0 0 0
160 2 6.398083 7.490686 7.363782 0 0 0
161 2 8.094123 6.619925 15.139858 0 0 0
162 2 6.454721 7.525337 12.689226 0 0 0
163 2 6.411333 9.289022 4.613990 0 0 0
164 2 4.995238 10.378712 1.877508 0 0 0
165 2 6.570597 9.424024 9.847214 0 0 0
166 2 4.778816 10.423487 7.354433 0 0 0
167 2 6.498629 9.347748 15.116566 0 0 0
168 2 4.896640 10.224360 12.607781 0 0 0
169 2 12.914119 1.962363 2.023761 0 0 0
170 2 12.869821 1.953701 7.153832 0 0 0
171 2 12.920484 1.847049 12.455508 0 0 0
172 2 11.410209 4.603223 2.093004 0 0 0
173 2 11.419432 4.641249 7.348095 0 0 0
174 2 11.453857 4.636186 12.557551 0 0 0
175 2 11.239383 6.617112 4.775137 0 0 0
176 2 9.866547 7.536924 1.960696 0 0 0
177 2 11.238994 6.531724 9.968906 0 0 0
178 2 9.718066 7.440848 7.412585 0 0 0
179 2 11.300828 6.458598 15.115615 0 0 0
180 2 9.822639 7.566850 12.431423 0 0 0
181 2 9.646358 9.277322 4.731562 0 0 0
182 2 8.141538 10.276448 2.067810 0 0 0
183 2 9.789124 9.323448 9.944821 0 0 0
184 2 8.112829 10.245285 7.295964 0 0 0
185 2 9.836409 9.428974 15.301005 0 0 0
186 2 8.122832 10.276898 12.448694 0 0 0
187 2 12.881903 7.491811 1.856593 0 0 0
188 2 0.023383 7.576637 7.122300 0 0 0
189 2 12.960625 7.506774 12.596689 0 0 0
190 2 11.265105 10.370612 1.952615 0 0 0
191 2 11.246009 10.214235 7.112634 0 0 0
192 2 11.386436 10.371399 12.418746 0 0 0
