LAMMPS DATA file

64 atoms

1 atom types

0.000000 10.862000 xlo xhi
0.000000 10.862000 ylo yhi
0.000000 10.862000 zlo zhi

Masses

1 28.0855

Atoms

1 1 6.737320 1.349690 1.392990
2 1 9.488240 4.059110 1.298980
3 1 9.433750 1.419290 4.083310
4 1 1.381900 1.375740 1.388440
5 1 4.067570 4.116900 1.342530
6 1 6.832750 6.826880 1.319760
7 1 9.574810 9.562180 1.403140
8 1 4.074760 1.350530 4.120280
9 1 6.821960 4.077770 3.989600
10 1 9.527390 6.750940 4.091900
11 1 6.784830 1.400070 6.820210
12 1 9.486290 4.070600 6.845250
13 1 9.479890 1.332530 9.498050
14 1 1.360680 6.789160 1.317980
15 1 4.094580 9.460900 1.346660
16 1 1.322780 4.095930 4.014440
17 1 4.075260 6.816970 4.072470
18 1 6.768970 9.501600 4.071030
19 1 1.306300 1.379990 6.771750
20 1 4.066590 4.109280 6.738900
21 1 6.823500 6.739610 6.793150
22 1 9.471010 9.465310 6.796150
23 1 4.054230 1.383370 9.486710
24 1 6.733080 4.098730 9.584000
25 1 9.539430 6.809590 9.495260
26 1 1.369590 9.512120 4.131190
27 1 1.365220 6.696890 6.796350
28 1 4.074460 9.481320 6.846870
29 1 1.365950 4.029350 9.485250
30 1 4.100830 6.758930 9.489770
31 1 6.819080 9.501880 9.490680
32 1 1.358390 9.505940 9.532600
33 1 5.443920 -0.017354 0.000208
34 1 8.147380 2.678460 0.017960
35 1 8.112550 0.012746 2.704590
36 1 0.077264 0.049595 0.002471
37 1 2.709390 2.705970 0.018829
38 1 5.436040 5.472830 0.038171
39 1 8.240220 8.239970 -0.021618
40 1 2.726180 -0.021944 2.771720
41 1 5.413650 2.715190 2.736850
42 1 8.185260 5.449390 2.676060
43 1 5.388190 -0.009530 5.486950
44 1 8.133380 2.751190 5.382440
45 1 8.135650 -0.014655 8.119440
46 1 0.031609 5.413750 -0.034415
47 1 2.736120 8.116120 0.027868
48 1 -0.012829 2.725090 2.691350
49 1 2.703860 5.453740 2.688710
50 1 5.436250 8.147810 2.681890
51 1 -0.054694 0.008698 5.422450
52 1 2.685190 2.706390 5.428160
53 1 5.449300 5.412690 5.383960
54 1 8.118310 8.099220 5.380340
55 1 2.685890 -0.017067 8.147540
56 1 5.391580 2.738250 8.173330
57 1 8.142910 5.422480 8.160810
58 1 0.027079 8.188240 2.735920
59 1 -0.038320 5.381200 5.416620
60 1 2.688220 8.141670 5.462120
61 1 0.015281 2.684270 8.151180
62 1 2.775750 5.418250 8.178980
63 1 5.435480 8.127440 8.135200
64 1 0.008553 8.126810 8.114290
