LAMMPS DATA file

64 atoms

1 atom types

0.000000 10.862000 xlo xhi
0.000000 10.862000 ylo yhi
0.000000 10.862000 zlo zhi

Masses

1 28.0855

Atoms

1 1 6.773420 1.413940 1.387740
2 1 9.528570 4.087840 1.347520
3 1 9.473520 1.347730 4.069420
4 1 1.292630 1.386750 1.376350
5 1 4.110080 4.104780 1.317050
6 1 6.773330 6.787740 1.368640
7 1 9.495230 9.524120 1.384790
8 1 4.068130 1.333520 4.061090
9 1 6.780940 4.082340 4.058760
10 1 9.519820 6.760450 4.064480
11 1 6.802650 1.375560 6.790570
12 1 9.449040 4.076230 6.769390
13 1 9.496590 1.310960 9.492340
14 1 1.381280 6.787460 1.310250
15 1 4.079650 9.509400 1.338200
16 1 1.316150 4.072990 4.074140
17 1 4.141150 6.807880 4.078340
18 1 6.810160 9.501680 4.114200
19 1 1.325900 1.367680 6.831700
20 1 4.008530 4.048680 6.787850
21 1 6.788420 6.813340 6.786330
22 1 9.509550 9.522110 6.828940
23 1 4.054690 1.343960 9.487530
24 1 6.790740 4.095940 9.475110
25 1 9.533810 6.751430 9.480980
26 1 1.390730 9.495770 4.071900
27 1 1.347040 6.757130 6.768870
28 1 4.092800 9.480880 6.804610
29 1 1.383450 4.070410 9.503190
30 1 4.110790 6.762020 9.478060
31 1 6.784540 9.467360 9.534210
32 1 1.381410 9.524150 9.524480
33 1 5.442900 0.019963 0.062008
34 1 8.225260 2.689940 -0.010933
35 1 8.121230 0.031788 2.702870
36 1 -0.022478 0.029870 0.001916
37 1 2.743880 2.725010 0.040878
38 1 5.458520 5.467400 -0.020192
39 1 8.145000 8.136550 -0.009911
40 1 2.701410 0.019825 2.690740
41 1 5.415010 2.735700 2.723450
42 1 8.152720 5.449780 2.717370
43 1 5.415640 -0.036057 5.426790
44 1 8.120330 2.713370 5.376530
45 1 8.146540 -0.015753 8.155900
46 1 0.053543 5.444400 -0.025119
47 1 2.770180 8.139880 0.021402
48 1 -0.018225 2.680710 2.769490
49 1 2.743210 5.446080 2.716680
50 1 5.417050 8.189170 2.740520
51 1 -0.015521 -0.013821 5.433650
52 1 2.647490 2.674270 5.487240
53 1 5.408800 5.380060 5.434510
54 1 8.155270 8.210310 5.432560
55 1 2.704640 -0.065138 8.135700
56 1 5.405020 2.682950 8.141060
57 1 8.137230 5.432800 8.073580
58 1 0.014894 8.142200 2.707340
59 1 -0.031594 5.408390 5.398490
60 1 2.721980 8.155480 5.403380
61 1 0.001029 2.746690 8.141250
62 1 2.703350 5.445180 8.201780
63 1 5.427270 8.147470 8.175610
64 1 0.029682 8.149290 8.122450
