LAMMPS DATA file

64 atoms

1 atom types

0.000000 10.862000 xlo xhi
0.000000 10.862000 ylo yhi
0.000000 10.862000 zlo zhi

Masses

1 28.0855

Atoms

1 1 6.765640 1.242930 1.356400
2 1 9.480110 4.026700 1.353020
3 1 9.507790 1.415350 4.053690
4 1 1.386530 1.349670 1.357120
5 1 4.030740 4.067620 1.369620
6 1 6.762660 6.769910 1.336480
7 1 9.527440 9.568550 1.382430
8 1 4.125110 1.356960 4.070230
9 1 6.831220 4.062380 4.082730
10 1 9.494400 6.735640 4.111310
11 1 6.837270 1.399980 6.796790
12 1 9.540900 4.074560 6.868500
13 1 9.489230 1.367370 9.535920
14 1 1.338660 6.752280 1.326700
15 1 4.094450 9.420190 1.330500
16 1 1.316860 4.104080 4.030540
17 1 4.051780 6.805510 4.027540
18 1 6.764300 9.455670 4.048570
19 1 1.374390 1.404610 6.736770
20 1 4.148070 4.132530 6.765270
21 1 6.815330 6.742320 6.823630
22 1 9.500290 9.494710 6.753920
23 1 4.067270 1.414280 9.497350
24 1 6.730050 4.117490 9.572740
25 1 9.494990 6.813890 9.539800
26 1 1.356060 9.519710 4.128620
27 1 1.348390 6.770300 6.846860
28 1 4.087000 9.536400 6.815040
29 1 1.341030 4.083930 9.465490
30 1 4.034650 6.777440 9.528420
31 1 6.794210 9.502160 9.441960
32 1 1.354600 9.520050 9.450020
33 1 5.391190 -0.048813 -0.014624
34 1 8.127220 2.669260 0.048833
35 1 8.174780 0.010273 2.733150
36 1 0.059736 0.012008 0.010476
37 1 2.727600 2.703400 -0.023056
38 1 5.373380 5.455890 0.045150
39 1 8.143840 8.188460 -0.030050
40 1 2.755300 -0.025883 2.735660
41 1 5.471290 2.694520 2.703820
42 1 8.165490 5.408330 2.699400
43 1 5.441910 -0.021312 5.433190
44 1 8.213080 2.723040 5.420940
45 1 8.181920 0.003496 8.105970
46 1 -0.042515 5.421050 0.017405
47 1 2.673600 8.134830 0.001322
48 1 0.010143 2.702270 2.684620
49 1 2.655400 5.439420 2.705260
50 1 5.384340 8.128720 2.696440
51 1 -0.019657 0.039434 5.407620
52 1 2.768440 2.749980 5.422450
53 1 5.476190 5.456750 5.390030
54 1 8.080940 8.108720 5.408350
55 1 2.705060 0.025366 8.142270
56 1 5.431640 2.753890 8.163950
57 1 8.137480 5.424360 8.199580
58 1 -0.020449 8.165860 2.737980
59 1 0.020588 5.416010 5.454050
60 1 2.705820 8.161190 5.444430
61 1 0.055501 2.709330 8.130880
62 1 2.732830 5.418410 8.177130
63 1 5.406510 8.139130 8.134970
64 1 -0.044013 8.163460 8.144390
