LAMMPS DATA file

64 atoms

1 atom types

0.000000 10.862000 xlo xhi
0.000000 10.862000 ylo yhi
0.000000 10.862000 zlo zhi

Masses

1 28.0855

Atoms

1 1 6.778050 1.396290 1.345720
2 1 9.493130 4.083280 1.353040
3 1 9.513750 1.313120 4.047690
4 1 1.367730 1.358340 1.368620
5 1 4.072710 4.087610 1.368860
6 1 6.807040 6.800760 1.348020
7 1 9.514980 9.515720 1.339200
8 1 4.088300 1.326000 4.072740
9 1 6.788750 4.078920 4.059430
10 1 9.537970 6.790570 4.045220
11 1 6.788480 1.369160 6.785890
12 1 9.518690 4.055640 6.787420
13 1 9.526070 1.332140 9.477920
14 1 1.336900 6.799290 1.404060
15 1 4.045710 9.526820 1.370870
16 1 1.384370 4.103030 4.091920
17 1 4.052410 6.763570 4.056720
18 1 6.754330 9.514160 4.096480
19 1 1.349970 1.375880 6.801950
20 1 4.048160 4.058340 6.806890
21 1 6.763950 6.805210 6.778220
22 1 9.494020 9.509700 6.788940
23 1 4.084440 1.354560 9.513070
24 1 6.798410 4.049140 9.531600
25 1 9.492840 6.800660 9.485240
26 1 1.369810 9.496840 4.051910
27 1 1.334570 6.776700 6.781230
28 1 4.067470 9.507320 6.741810
29 1 1.396120 4.054260 9.499860
30 1 4.086270 6.776250 9.524290
31 1 6.806180 9.498310 9.515990
32 1 1.338640 9.490570 9.516700
33 1 5.431640 0.016559 -0.032675
34 1 8.145460 2.702640 0.005380
35 1 8.148760 -0.011559 2.670890
36 1 -0.047801 -0.001206 0.028032
37 1 2.742990 2.730060 0.002207
38 1 5.431840 5.437160 -0.010540
39 1 8.164010 8.154290 0.017996
40 1 2.728400 0.013569 2.723450
41 1 5.392790 2.711610 2.735960
42 1 8.184140 5.429650 2.708860
43 1 5.422030 0.027983 5.445010
44 1 8.115900 2.771090 5.463710
45 1 8.122740 -0.012425 8.177770
46 1 -0.022090 5.422860 -0.011789
47 1 2.693690 8.132270 -0.026520
48 1 -0.018597 2.736230 2.694410
49 1 2.706660 5.457780 2.689710
50 1 5.429320 8.117870 2.719440
51 1 0.040381 -0.022912 5.421160
52 1 2.735540 2.712180 5.408330
53 1 5.468320 5.403540 5.436220
54 1 8.177900 8.114350 5.453910
55 1 2.726970 0.016342 8.123360
56 1 5.420250 2.749720 8.128340
57 1 8.109710 5.437310 8.180260
58 1 0.006206 8.118950 2.738540
59 1 -0.020977 5.433450 5.430690
60 1 2.709770 8.168480 5.436120
61 1 -0.008373 2.731490 8.164820
62 1 2.697070 5.394770 8.143190
63 1 5.474760 8.136360 8.152790
64 1 0.026439 8.137370 8.159460
