LAMMPS DATA file

192 atoms
0 bonds
0 angles
0 dihedrals
0 impropers

2 atom types
0 bond types
0 angle types

0.0 12.990503 xlo xhi
0.0 11.250148 ylo yhi
0.0 15.845291 zlo zhi

Masses

1 69.723
2 14.0067

Atoms

1 1 1.693702 0.862639 2.750109 0 0 0
2 1 1.751120 0.940760 8.038950 0 0 0
3 1 1.646676 0.859826 13.103738 0 0 0
4 1 12.966331 3.806038 2.738542 0 0 0
5 1 0.075337 3.709174 7.928033 0 0 0
6 1 12.883969 3.662711 13.083615 0 0 0
7 1 4.917815 0.936429 2.536989 0 0 0
8 1 3.246327 1.795749 5.135300 0 0 0
9 1 4.962502 0.951133 8.053369 0 0 0
10 1 3.298678 1.893625 10.658018 0 0 0
11 1 4.969907 1.047513 13.040674 0 0 0
12 1 3.342586 1.900375 0.150530 0 0 0
13 1 3.254771 3.745399 2.730936 0 0 0
14 1 1.553145 4.687149 5.403244 0 0 0
15 1 3.266982 3.827750 7.992840 0 0 0
16 1 1.646157 4.630561 10.610799 0 0 0
17 1 3.139415 3.778362 13.249990 0 0 0
18 1 1.683439 4.775463 0.147361 0 0 0
19 1 1.693702 6.580887 2.771183 0 0 0
20 1 1.644598 6.453873 7.796992 0 0 0
21 1 1.717994 6.559061 13.308143 0 0 0
22 1 12.915005 9.386899 2.676586 0 0 0
23 1 12.868911 9.400961 7.873525 0 0 0
24 1 12.873469 9.372723 13.101520 0 0 0
25 1 8.021116 0.871245 2.523363 0 0 0
26 1 6.414451 1.772123 5.319106 0 0 0
27 1 8.062426 0.946194 7.979055 0 0 0
28 1 6.494992 1.883050 10.540604 0 0 0
29 1 8.021376 0.935337 13.310836 0 0 0
30 1 6.592421 1.823312 15.747367 0 0 0
31 1 6.512139 3.781625 2.609086 0 0 0
32 1 4.795055 4.788401 5.143857 0 0 0
33 1 6.392757 3.669461 7.811411 0 0 0
34 1 4.902876 4.704137 10.416060 0 0 0
35 1 6.607230 3.801538 13.274234 0 0 0
36 1 4.758032 4.768713 0.131516 0 0 0
37 1 4.997317 6.643325 2.725865 0 0 0
38 1 3.251133 7.427573 5.244157 0 0 0
39 1 4.776348 6.457023 8.056380 0 0 0
40 1 3.196054 7.454123 10.505111 0 0 0
41 1 4.862865 6.595962 13.048438 0 0 0
42 1 3.336481 7.513411 0.106163 0 0 0
43 1 3.208135 9.362936 2.494207 0 0 0
44 1 1.539894 10.349236 5.222608 0 0 0
45 1 3.351160 9.289247 8.071908 0 0 0
46 1 1.634205 10.359249 10.716328 0 0 0
47 1 3.192546 9.355848 13.187718 0 0 0
48 1 1.692403 10.384224 15.713141 0 0 0
49 1 11.283031 0.905929 2.494841 0 0 0
50 1 9.748593 1.838049 5.173487 0 0 0
51 1 11.291086 1.028669 7.972716 0 0 0
52 1 9.734693 1.967763 10.432539 0 0 0
53 1 11.430474 0.990666 13.218458 0 0 0
54 1 9.660777 1.896887 15.776364 0 0 0
55 1 9.647787 3.685436 2.760567 0 0 0
56 1 8.007736 4.629661 5.134825 0 0 0
57 1 9.727679 3.640548 8.043069 0 0 0
58 1 8.040212 4.596023 10.497030 0 0 0
59 1 9.731446 3.660461 13.355995 0 0 0
60 1 8.075416 4.641924 15.700940 0 0 0
61 1 8.066713 6.460510 2.637132 0 0 0
62 1 6.563192 7.529612 5.146392 0 0 0
63 1 8.010204 6.624987 8.045605 0 0 0
64 1 6.504085 7.412160 10.661345 0 0 0
65 1 8.076975 6.516198 13.276927 0 0 0
66 1 6.368075 7.398547 0.047536 0 0 0
67 1 6.522142 9.381049 2.708119 0 0 0
68 1 4.925219 10.375899 5.209139 0 0 0
69 1 6.545265 9.387911 7.884300 0 0 0
70 1 4.757512 10.375674 10.506537 0 0 0
71 1 6.523311 9.429424 13.073632 0 0 0
72 1 4.774789 10.323811 15.835150 0 0 0
73 1 0.101326 1.942338 5.350479 0 0 0
74 1 12.873978 1.778873 10.427627 0 0 0
75 1 0.077943 1.974739 0.052289 0 0 0
76 1 11.271080 4.737662 5.152730 0 0 0
77 1 11.267313 4.719212 10.503843 0 0 0
78 1 11.406701 4.743625 0.020599 0 0 0
79 1 11.429045 6.502923 2.709862 0 0 0
80 1 9.865118 7.582712 5.145124 0 0 0
81 1 11.332006 6.533186 7.975727 0 0 0
82 1 9.768339 7.565162 10.516044 0 0 0
83 1 11.290306 6.469623 13.285167 0 0 0
84 1 9.666363 7.474936 0.011092 0 0 0
85 1 9.672469 9.407036 2.630477 0 0 0
86 1 8.028651 10.376124 5.149719 0 0 0
87 1 9.689357 9.316023 7.926924 0 0 0
88 1 8.012932 10.291298 10.432856 0 0 0
89 1 9.642201 9.439099 13.132894 0 0 0
90 1 8.145955 10.417187 15.818354 0 0 0
91 1 0.050663 7.558187 5.254932 0 0 0
92 1 0.040271 7.412273 10.695571 0 0 0
93 1 12.909313 7.447486 0.088734 0 0 0
94 1 11.363443 10.373199 5.243365 0 0 0
95 1 11.307713 10.208497 10.613017 0 0 0
96 1 11.348374 10.301761 0.030106 0 0 0
97 2 1.509367 0.896063 4.713499 0 0 0
98 2 1.674866 0.853211 9.791597 0 0 0
99 2 1.517940 0.826773 15.166161 0 0 0
100 2 0.040421 3.800188 4.636966 0 0 0
101 2 12.888872 3.779712 9.790488 0 0 0
102 2 12.895493 3.659786 15.077111 0 0 0
103 2 4.785312 0.869164 4.569148 0 0 0
104 2 3.199951 1.811499 1.907298 0 0 0
105 2 4.973544 0.983240 9.926441 0 0 0
106 2 3.165656 1.810261 7.134025 0 0 0
107 2 4.979000 0.984028 15.208944 0 0 0
108 2 3.199171 1.799911 12.588450 0 0 0
109 2 3.374413 3.675873 4.550292 0 0 0
110 2 1.597052 4.591748 2.044518 0 0 0
111 2 3.222294 3.858688 9.877796 0 0 0
112 2 1.655120 4.609748 7.230365 0 0 0
113 2 3.159550 3.808175 15.308135 0 0 0
114 2 1.585101 4.729337 12.484504 0 0 0
115 2 1.631737 6.637362 4.657882 0 0 0
116 2 1.581074 6.517436 9.893799 0 0 0
117 2 1.603678 6.531049 15.209102 0 0 0
118 2 0.063017 9.358098 4.604641 0 0 0
119 2 12.893043 9.268097 9.842302 0 0 0
120 2 12.943094 9.409736 15.335389 0 0 0
121 2 8.232212 0.928036 4.544746 0 0 0
122 2 6.563841 1.933338 2.062423 0 0 0
123 2 8.182328 0.848846 9.966371 0 0 0
124 2 6.485769 1.810261 7.140680 0 0 0
125 2 8.203113 0.864383 15.083924 0 0 0
126 2 6.538380 1.963713 12.554858 0 0 0
127 2 6.547863 3.672161 4.770700 0 0 0
128 2 4.882091 4.727987 1.839321 0 0 0
129 2 6.575533 3.806038 9.788428 0 0 0
130 2 4.877934 4.648336 7.282654 0 0 0
131 2 6.469011 3.730999 15.089312 0 0 0
132 2 4.807915 4.579710 12.683997 0 0 0
133 2 4.911320 6.659975 4.520344 0 0 0
134 2 3.357006 7.566400 2.010609 0 0 0
135 2 4.855850 6.508098 9.988554 0 0 0
136 2 3.177087 7.402035 7.352690 0 0 0
137 2 4.915866 6.611037 15.235564 0 0 0
138 2 3.226581 7.475498 12.649929 0 0 0
139 2 3.200210 9.445849 4.718569 0 0 0
140 2 1.715396 10.313911 2.029148 0 0 0
141 2 3.364800 9.362486 9.769414 0 0 0
142 2 1.719033 10.342149 7.221967 0 0 0
143 2 3.376751 9.313098 15.238891 0 0 0
144 2 1.651093 10.287248 12.436335 0 0 0
145 2 11.243281 0.919756 4.526841 0 0 0
146 2 9.801594 1.845812 2.094431 0 0 0
147 2 11.427486 0.953495 9.806333 0 0 0
148 2 9.861741 1.822187 7.402444 0 0 0
149 2 11.294983 0.909057 15.059840 0 0 0
150 2 9.779251 1.803174 12.405436 0 0 0
151 2 9.800815 3.715699 4.678005 0 0 0
152 2 8.088927 4.716175 1.834568 0 0 0
153 2 9.849529 3.817625 9.986653 0 0 0
154 2 8.200385 4.661274 7.304996 0 0 0
155 2 9.762493 3.756762 15.119259 0 0 0
156 2 8.053722 4.676687 12.463430 0 0 0
157 2 8.198177 6.672013 4.478038 0 0 0
158 2 6.504475 7.407210 2.081913 0 0 0
159 2 8.246112 6.465123 10.047974 0 0 0
160 2 6.370023 7.541424 7.357761 0 0 0
161 2 8.127898 6.649288 15.317009 0 0 0
162 2 6.527988 7.418573 12.460261 0 0 0
163 2 6.412632 9.272035 4.502439 0 0 0
164 2 4.901707 10.411562 1.940097 0 0 0
165 2 6.471999 9.484100 10.050034 0 0 0
166 2 4.917295 10.422475 7.352532 0 0 0
167 2 6.452773 9.411649 15.109435 0 0 0
168 2 4.818308 10.353174 12.558502 0 0 0
169 2 12.967510 1.898125 2.065592 0 0 0
170 2 0.022084 1.886650 7.294380 0 0 0
171 2 0.002598 1.781123 12.619189 0 0 0
172 2 11.495556 4.654861 2.135470 0 0 0
173 2 11.326809 4.774563 7.253499 0 0 0
174 2 11.344217 4.624036 12.431106 0 0 0
175 2 11.317067 6.613512 4.716668 0 0 0
176 2 9.793281 7.389772 2.094906 0 0 0
177 2 11.476460 6.623525 9.763868 0 0 0
178 2 9.711181 7.546037 7.340648 0 0 0
179 2 11.295113 6.510573 15.245388 0 0 0
180 2 9.737032 7.527924 12.466124 0 0 0
181 2 9.658959 9.449337 4.711597 0 0 0
182 2 8.231952 10.224360 1.885431 0 0 0
183 2 9.638694 9.372836 9.811562 0 0 0
184 2 8.221949 10.222447 7.123409 0 0 0
185 2 9.757817 9.436399 15.130985 0 0 0
186 2 8.035665 10.276448 12.457884 0 0 0
187 2 0.002598 7.591488 2.026930 0 0 0
188 2 12.886969 7.475498 7.126736 0 0 0
189 2 0.000000 7.484724 12.707289 0 0 0
190 2 11.447621 10.309411 2.111068 0 0 0
191 2 11.272509 10.287923 7.403395 0 0 0
192 2 11.475161 10.360712 12.587182 0 0 0
