LAMMPS DATA file

192 atoms
0 bonds
0 angles
0 dihedrals
0 impropers

2 atom types
0 bond types
0 angle types

0.0 12.990503 xlo xhi
0.0 11.250148 ylo yhi
0.0 15.845291 zlo zhi

Masses

1 69.723
2 14.0067

Atoms

1 1 1.670839 1.048739 2.788454 0 0 0
2 1 1.753198 0.941986 7.969389 0 0 0
3 1 1.704484 0.876139 13.253159 0 0 0
4 1 0.004825 3.691849 2.615899 0 0 0
5 1 0.031864 3.786800 7.965744 0 0 0
6 1 0.109040 3.774200 13.058579 0 0 0
7 1 4.849485 0.931434 2.566620 0 0 0
8 1 3.188129 1.893737 5.287415 0 0 0
9 1 4.834805 0.948354 7.787485 0 0 0
10 1 3.192286 1.873150 10.577048 0 0 0
11 1 4.851044 0.940029 13.166010 0 0 0
12 1 3.156303 1.961576 15.793793 0 0 0
13 1 3.269060 3.769925 2.676428 0 0 0
14 1 1.650963 4.734512 5.346518 0 0 0
15 1 3.224892 3.679248 7.766252 0 0 0
16 1 1.599391 4.769950 10.676874 0 0 0
17 1 3.327128 3.760475 13.259022 0 0 0
18 1 1.670319 4.757913 15.722806 0 0 0
19 1 1.537946 6.608000 2.588328 0 0 0
20 1 1.657588 6.636800 7.840408 0 0 0
21 1 1.719163 6.664025 13.184866 0 0 0
22 1 12.945348 9.298135 2.733630 0 0 0
23 1 0.079579 9.417387 7.829633 0 0 0
24 1 12.947251 9.273947 13.093122 0 0 0
25 1 8.091005 1.025969 2.687203 0 0 0
26 1 6.450824 1.948076 5.194562 0 0 0
27 1 8.224937 0.890595 7.956237 0 0 0
28 1 6.575013 1.769761 10.678300 0 0 0
29 1 8.245982 0.971102 13.160465 0 0 0
30 1 6.555398 1.969563 15.838319 0 0 0
31 1 6.412372 3.744049 2.499595 0 0 0
32 1 4.979650 4.690187 5.198523 0 0 0
33 1 6.470440 3.853401 7.967012 0 0 0
34 1 4.941458 4.600861 10.483244 0 0 0
35 1 6.576182 3.808288 13.174567 0 0 0
36 1 4.920673 4.729787 15.739286 0 0 0
37 1 4.744651 6.456460 2.509102 0 0 0
38 1 3.336741 7.410923 5.219439 0 0 0
39 1 4.931195 6.532399 7.920427 0 0 0
40 1 3.185012 7.517462 10.547735 0 0 0
41 1 4.931455 6.473673 13.350925 0 0 0
42 1 3.225672 7.566400 15.817878 0 0 0
43 1 3.328297 9.371711 2.647748 0 0 0
44 1 1.496766 10.336299 5.190600 0 0 0
45 1 3.296990 9.378911 7.820919 0 0 0
46 1 1.711889 10.222110 10.485463 0 0 0
47 1 3.233466 9.391736 13.074425 0 0 0
48 1 1.522617 10.203772 15.816135 0 0 0
49 1 11.314858 0.886208 2.684826 0 0 0
50 1 9.811987 1.967426 5.269668 0 0 0
51 1 11.463859 0.843705 7.972399 0 0 0
52 1 9.805232 1.849187 10.608422 0 0 0
53 1 11.241852 0.959626 13.146521 0 0 0
54 1 9.642591 1.912863 0.007923 0 0 0
55 1 9.659089 3.726612 2.632853 0 0 0
56 1 8.102956 4.717975 5.166199 0 0 0
57 1 9.854466 3.833376 7.842943 0 0 0
58 1 8.121403 4.685462 10.412733 0 0 0
59 1 9.718066 3.722674 13.093439 0 0 0
60 1 8.209868 4.721912 0.000000 0 0 0
61 1 8.176483 6.468385 2.770866 0 0 0
62 1 6.374180 7.438598 5.276165 0 0 0
63 1 8.026182 6.506861 8.046555 0 0 0
64 1 6.504994 7.580800 10.565481 0 0 0
65 1 8.209868 6.503711 13.077118 0 0 0
66 1 6.533444 7.411823 15.771768 0 0 0
67 1 6.390938 9.327048 2.766112 0 0 0
68 1 4.875076 10.259685 5.226411 0 0 0
69 1 6.493043 9.440787 7.840091 0 0 0
70 1 4.902226 10.424275 10.403859 0 0 0
71 1 6.484599 9.379811 13.318442 0 0 0
72 1 4.780895 10.241797 0.131516 0 0 0
73 1 0.074046 1.798449 5.414653 0 0 0
74 1 12.877616 1.848174 10.618880 0 0 0
75 1 12.867873 1.962138 0.126762 0 0 0
76 1 11.350712 4.626398 5.310866 0 0 0
77 1 11.477240 4.718087 10.417011 0 0 0
78 1 11.494517 4.641586 15.757508 0 0 0
79 1 11.337072 6.508886 2.548081 0 0 0
80 1 9.708582 7.426785 5.361254 0 0 0
81 1 11.388384 6.520923 8.045288 0 0 0
82 1 9.846282 7.485399 10.421923 0 0 0
83 1 11.404363 6.638712 13.326840 0 0 0
84 1 9.774055 7.483261 15.683193 0 0 0
85 1 9.864988 9.382061 2.585001 0 0 0
86 1 8.142967 10.400650 5.261587 0 0 0
87 1 9.793281 9.468462 7.793982 0 0 0
88 1 8.047227 10.309973 10.652630 0 0 0
89 1 9.727549 9.300723 13.320344 0 0 0
90 1 7.996564 10.280835 0.109333 0 0 0
91 1 0.061055 7.535237 5.275056 0 0 0
92 1 12.886189 7.446811 10.546625 0 0 0
93 1 0.002598 7.521849 15.830554 0 0 0
94 1 11.344217 10.315598 5.167466 0 0 0
95 1 11.299789 10.244160 10.621415 0 0 0
96 1 11.379031 10.222897 15.791417 0 0 0
97 2 1.723580 0.851029 4.744238 0 0 0
98 2 1.679672 0.862740 10.030069 0 0 0
99 2 1.514043 0.983207 15.244279 0 0 0
100 2 0.048869 3.859926 4.487703 0 0 0
101 2 0.031599 3.747087 9.846897 0 0 0
102 2 12.898533 3.852501 15.336498 0 0 0
103 2 4.968608 0.993782 4.588955 0 0 0
104 2 3.278283 1.922313 1.846135 0 0 0
105 2 4.888326 0.947645 10.058907 0 0 0
106 2 3.148508 1.905325 7.156209 0 0 0
107 2 4.797263 0.832770 15.277395 0 0 0
108 2 3.184622 1.939301 12.584488 0 0 0
109 2 3.125385 3.842263 4.587053 0 0 0
110 2 1.601469 4.783113 1.972263 0 0 0
111 2 3.369087 3.681949 9.999171 0 0 0
112 2 1.711759 4.748688 7.231949 0 0 0
113 2 3.364151 3.759125 15.205458 0 0 0
114 2 1.571071 4.743625 12.428729 0 0 0
115 2 1.536906 6.673138 4.489922 0 0 0
116 2 1.690974 6.547474 9.795242 0 0 0
117 2 1.506898 6.667400 15.104523 0 0 0
118 2 12.961171 9.295885 4.652811 0 0 0
119 2 12.973045 9.285760 9.751984 0 0 0
120 2 12.963061 9.460812 15.124964 0 0 0
121 2 8.167779 0.991104 4.754855 0 0 0
122 2 6.552670 1.907350 2.042300 0 0 0
123 2 8.179340 1.027206 10.046231 0 0 0
124 2 6.479923 1.841537 7.404504 0 0 0
125 2 8.237018 0.840454 15.140334 0 0 0
126 2 6.368984 1.851662 12.582904 0 0 0
127 2 6.403279 3.728974 4.492457 0 0 0
128 2 4.901447 4.649911 1.854691 0 0 0
129 2 6.560464 3.805588 9.823605 0 0 0
130 2 4.823244 4.611436 7.122933 0 0 0
131 2 6.509281 3.788712 15.345055 0 0 0
132 2 4.974973 4.608511 12.419222 0 0 0
133 2 4.833117 6.641525 4.691474 0 0 0
134 2 3.160070 7.432073 2.124853 0 0 0
135 2 4.809734 6.459273 9.955913 0 0 0
136 2 3.218137 7.546149 7.131331 0 0 0
137 2 4.983417 6.507423 15.245229 0 0 0
138 2 3.183323 7.600150 12.494645 0 0 0
139 2 3.361163 9.321423 4.735524 0 0 0
140 2 1.662914 10.342936 1.922192 0 0 0
141 2 3.287377 9.482975 9.972551 0 0 0
142 2 1.585881 10.366674 7.202952 0 0 0
143 2 3.239832 9.433249 15.203398 0 0 0
144 2 1.703834 10.234035 12.454874 0 0 0
145 2 11.435410 0.891889 4.626191 0 0 0
146 2 9.776653 1.857962 1.889076 0 0 0
147 2 11.254582 0.849454 9.889204 0 0 0
148 2 9.713909 1.819149 7.312918 0 0 0
149 2 11.405012 0.964993 15.041617 0 0 0
150 2 9.677665 1.922988 12.623626 0 0 0
151 2 9.843814 3.758787 4.529218 0 0 0
152 2 8.189863 4.714150 2.125170 0 0 0
153 2 9.740799 3.717274 10.008361 0 0 0
154 2 8.072559 4.794701 7.229414 0 0 0
155 2 9.637135 3.642235 15.199753 0 0 0
156 2 8.014361 4.780863 12.620457 0 0 0
157 2 8.108152 6.511023 4.732038 0 0 0
158 2 6.380286 7.512511 2.016155 0 0 0
159 2 8.068921 6.532399 10.065245 0 0 0
160 2 6.525649 7.571350 7.299925 0 0 0
161 2 8.003189 6.463435 15.169806 0 0 0
162 2 6.543836 7.539062 12.505103 0 0 0
163 2 6.493043 9.301510 4.504024 0 0 0
164 2 4.890795 10.283760 1.940890 0 0 0
165 2 6.390158 9.484212 9.884451 0 0 0
166 2 4.940418 10.367799 7.383905 0 0 0
167 2 6.575663 9.380036 15.113238 0 0 0
168 2 4.970946 10.390862 12.397831 0 0 0
169 2 12.876187 1.917588 1.910308 0 0 0
170 2 12.866054 1.895650 7.121983 0 0 0
171 2 12.887229 1.843787 12.393711 0 0 0
172 2 11.357467 4.601311 2.055451 0 0 0
173 2 11.410209 4.700874 7.289151 0 0 0
174 2 11.357987 4.658461 12.402267 0 0 0
175 2 11.461521 6.666275 4.756915 0 0 0
176 2 9.809129 7.451873 1.932175 0 0 0
177 2 11.359156 6.578187 9.941335 0 0 0
178 2 9.674807 7.517237 7.226245 0 0 0
179 2 11.307324 6.671788 15.237465 0 0 0
180 2 9.714558 7.413623 12.488941 0 0 0
181 2 9.623755 9.348198 4.697970 0 0 0
182 2 8.191032 10.222785 2.119149 0 0 0
183 2 9.791462 9.288347 9.990773 0 0 0
184 2 8.183238 10.384112 7.299608 0 0 0
185 2 9.760545 9.448212 15.338241 0 0 0
186 2 8.001630 10.236510 12.654366 0 0 0
187 2 12.863326 7.535574 2.098075 0 0 0
188 2 12.956598 7.549974 7.232108 0 0 0
189 2 0.111718 7.493836 12.557393 0 0 0
190 2 11.246009 10.250010 2.083814 0 0 0
191 2 11.265494 10.299286 7.323852 0 0 0
192 2 11.356428 10.204784 12.609999 0 0 0
