LAMMPS DATA file

192 atoms
0 bonds
0 angles
0 dihedrals
0 impropers

2 atom types
0 bond types
0 angle types

0.0 12.990503 xlo xhi
0.0 11.250148 ylo yhi
0.0 15.845291 zlo zhi

Masses

1 69.723
2 14.0067

Atoms

1 1 1.569383 0.890742 2.571057 0 0 0
2 1 1.500403 1.031526 7.976044 0 0 0
3 1 1.554833 0.936912 13.291030 0 0 0
4 1 12.959388 3.686674 2.705900 0 0 0
5 1 0.070887 3.793550 7.955128 0 0 0
6 1 0.068151 3.752599 13.144936 0 0 0
7 1 4.741923 0.955655 2.531444 0 0 0
8 1 3.168384 1.796311 5.278066 0 0 0
9 1 4.746080 0.931029 7.773383 0 0 0
10 1 3.232687 1.799349 10.580851 0 0 0
11 1 4.954188 0.844211 13.114196 0 0 0
12 1 3.181634 1.841762 15.811065 0 0 0
13 1 3.147339 3.729199 2.691164 0 0 0
14 1 1.634985 4.655424 5.327504 0 0 0
15 1 3.294002 3.667098 7.898085 0 0 0
16 1 1.737350 4.703349 10.582594 0 0 0
17 1 3.316346 3.693086 13.260290 0 0 0
18 1 1.570552 4.703462 0.038029 0 0 0
19 1 1.597572 6.506073 2.773401 0 0 0
20 1 1.610563 6.569749 7.959882 0 0 0
21 1 1.667461 6.548824 13.095340 0 0 0
22 1 0.050504 9.470712 2.594349 0 0 0
23 1 0.036060 9.462837 7.911712 0 0 0
24 1 0.033730 9.367211 13.075058 0 0 0
25 1 8.018518 0.849285 2.618276 0 0 0
26 1 6.609308 1.905100 5.412434 0 0 0
27 1 8.005528 0.894072 8.059707 0 0 0
28 1 6.368075 1.800249 10.639003 0 0 0
29 1 8.205841 0.961325 13.204673 0 0 0
30 1 6.610347 1.929288 0.058628 0 0 0
31 1 6.558775 3.834163 2.782433 0 0 0
32 1 4.996667 4.781763 5.207713 0 0 0
33 1 6.380545 3.822238 7.815531 0 0 0
34 1 4.750627 4.748575 10.570869 0 0 0
35 1 6.451474 3.767675 13.311312 0 0 0
36 1 4.908462 4.669599 0.009507 0 0 0
37 1 4.788949 6.503261 2.542060 0 0 0
38 1 3.185141 7.599700 5.321165 0 0 0
39 1 4.956916 6.537574 7.812045 0 0 0
40 1 3.309980 7.583950 10.512241 0 0 0
41 1 4.788040 6.674263 13.344428 0 0 0
42 1 3.158251 7.596663 15.815977 0 0 0
43 1 3.175658 9.293297 2.559331 0 0 0
44 1 1.635374 10.218622 5.307380 0 0 0
45 1 3.125255 9.364961 7.864018 0 0 0
46 1 1.739039 10.268348 10.535375 0 0 0
47 1 3.289455 9.348311 13.083615 0 0 0
48 1 1.518980 10.268798 0.096656 0 0 0
49 1 11.399816 0.871346 2.787504 0 0 0
50 1 9.726769 1.950438 5.288683 0 0 0
51 1 11.243281 0.826548 8.007893 0 0 0
52 1 9.729237 1.827474 10.673071 0 0 0
53 1 11.407221 0.889065 13.244761 0 0 0
54 1 9.681432 1.801824 15.798230 0 0 0
55 1 9.752620 3.845976 2.714298 0 0 0
56 1 8.027481 4.575660 5.158117 0 0 0
57 1 9.851218 3.788825 7.794774 0 0 0
58 1 8.238577 4.601873 10.555657 0 0 0
59 1 9.706894 3.743262 13.059055 0 0 0
60 1 8.074897 4.634611 15.759251 0 0 0
61 1 8.235330 6.457360 2.764052 0 0 0
62 1 6.461087 7.536699 5.420040 0 0 0
63 1 8.013582 6.604287 7.889370 0 0 0
64 1 6.394445 7.498224 10.545833 0 0 0
65 1 8.217013 6.598662 13.128615 0 0 0
66 1 6.536042 7.532874 0.120424 0 0 0
67 1 6.594629 9.338073 2.612255 0 0 0
68 1 4.950421 10.407850 5.392469 0 0 0
69 1 6.495122 9.394099 8.051784 0 0 0
70 1 4.784662 10.284323 10.481818 0 0 0
71 1 6.581119 9.278447 13.129566 0 0 0
72 1 4.885728 10.339449 15.811223 0 0 0
73 1 12.927759 1.856274 5.238928 0 0 0
74 1 12.885670 1.792036 10.592894 0 0 0
75 1 0.040271 1.951788 15.839745 0 0 0
76 1 11.316547 4.613236 5.133240 0 0 0
77 1 11.295502 4.657674 10.579584 0 0 0
78 1 11.384747 4.750263 0.023768 0 0 0
79 1 11.265494 6.594274 2.499753 0 0 0
80 1 9.708063 7.452211 5.352856 0 0 0
81 1 11.254193 6.620487 7.835021 0 0 0
82 1 9.672989 7.390335 10.441571 0 0 0
83 1 11.291216 6.498311 13.327474 0 0 0
84 1 9.685200 7.409460 0.083980 0 0 0
85 1 9.786396 9.400511 2.585951 0 0 0
86 1 8.168558 10.252710 5.215477 0 0 0
87 1 9.705854 9.311410 7.973350 0 0 0
88 1 8.180380 10.202422 10.512400 0 0 0
89 1 9.675327 9.471387 13.282315 0 0 0
90 1 8.087757 10.354524 0.057043 0 0 0
91 1 0.023383 7.604088 5.365374 0 0 0
92 1 0.010392 7.408785 10.680360 0 0 0
93 1 12.927499 7.491924 15.786188 0 0 0
94 1 11.433462 10.380737 5.372346 0 0 0
95 1 11.464509 10.219860 10.611274 0 0 0
96 1 11.367340 10.275660 0.022183 0 0 0
97 2 1.585361 0.871526 4.551718 0 0 0
98 2 1.519499 0.858769 9.852126 0 0 0
99 2 1.648365 0.859601 15.051917 0 0 0
100 2 12.862622 3.811775 4.684660 0 0 0
101 2 12.891908 3.799400 9.801580 0 0 0
102 2 12.891818 3.790850 15.078062 0 0 0
103 2 4.756603 0.855371 4.473284 0 0 0
104 2 3.166825 1.778423 1.839638 0 0 0
105 2 4.821555 0.941052 9.875102 0 0 0
106 2 3.376232 1.861450 7.157476 0 0 0
107 2 4.943666 0.991779 15.059840 0 0 0
108 2 3.239961 1.828374 12.520156 0 0 0
109 2 3.229439 3.833601 4.692741 0 0 0
110 2 1.497675 4.580610 1.902861 0 0 0
111 2 3.273217 3.845976 9.856246 0 0 0
112 2 1.609004 4.597373 7.336053 0 0 0
113 2 3.305174 3.813575 15.330636 0 0 0
114 2 1.506249 4.755100 12.539171 0 0 0
115 2 1.566395 6.460173 4.718094 0 0 0
116 2 1.727477 6.624650 10.015808 0 0 0
117 2 1.583412 6.493136 15.152059 0 0 0
118 2 12.927198 9.267422 4.561542 0 0 0
119 2 12.923064 9.308148 9.860683 0 0 0
120 2 0.009654 9.290597 15.093115 0 0 0
121 2 8.116077 0.916583 4.701456 0 0 0
122 2 6.443290 1.944138 2.117248 0 0 0
123 2 8.187914 0.900203 9.978255 0 0 0
124 2 6.374050 1.901050 7.144958 0 0 0
125 2 8.002280 0.837427 15.040350 0 0 0
126 2 6.613595 1.880687 12.630915 0 0 0
127 2 6.518635 3.803788 4.569782 0 0 0
128 2 4.961853 4.686137 1.864040 0 0 0
129 2 6.576442 3.787587 9.871299 0 0 0
130 2 4.928337 4.669262 7.127212 0 0 0
131 2 6.517335 3.704786 15.161883 0 0 0
132 2 4.893782 4.646086 12.437919 0 0 0
133 2 4.999135 6.474235 4.574535 0 0 0
134 2 3.127594 7.595088 1.945960 0 0 0
135 2 4.998486 6.572337 9.928818 0 0 0
136 2 3.166565 7.436123 7.263323 0 0 0
137 2 4.798562 6.660875 15.120052 0 0 0
138 2 3.365320 7.571012 12.501934 0 0 0
139 2 3.123307 9.339311 4.590381 0 0 0
140 2 1.518200 10.418200 1.887966 0 0 0
141 2 3.160460 9.376661 9.911388 0 0 0
142 2 1.507288 10.282748 7.294855 0 0 0
143 2 3.376232 9.360573 15.252677 0 0 0
144 2 1.498195 10.234485 12.676232 0 0 0
145 2 11.248866 0.831611 4.650593 0 0 0
146 2 9.701438 1.811836 2.114237 0 0 0
147 2 11.414236 0.908629 9.877479 0 0 0
148 2 9.666233 1.815999 7.389768 0 0 0
149 2 11.476070 1.000881 15.108801 0 0 0
150 2 9.764572 1.807899 12.431423 0 0 0
151 2 9.791592 3.842488 4.706527 0 0 0
152 2 8.202983 4.625723 1.950238 0 0 0
153 2 9.721703 3.848113 9.783833 0 0 0
154 2 8.127249 4.714825 7.198357 0 0 0
155 2 9.664415 3.729424 15.146989 0 0 0
156 2 8.031249 4.776138 12.530773 0 0 0
157 2 8.163362 6.497411 4.617951 0 0 0
158 2 6.378337 7.499236 1.913160 0 0 0
159 2 8.166870 6.618350 9.874468 0 0 0
160 2 6.510580 7.552337 7.303253 0 0 0
161 2 8.140109 6.466023 15.150633 0 0 0
162 2 6.374050 7.478986 12.599700 0 0 0
163 2 6.514737 9.482187 4.608603 0 0 0
164 2 4.943666 10.328311 1.834409 0 0 0
165 2 6.498499 9.354273 9.819960 0 0 0
166 2 4.801420 10.298836 7.401018 0 0 0
167 2 6.448226 9.326598 15.147306 0 0 0
168 2 4.871309 10.383212 12.465649 0 0 0
169 2 12.866444 1.830287 1.922192 0 0 0
170 2 0.084438 1.793161 7.367585 0 0 0
171 2 0.093532 1.886987 12.397038 0 0 0
172 2 11.368769 4.735637 2.048796 0 0 0
173 2 11.468926 4.732825 7.406564 0 0 0
174 2 11.239643 4.759488 12.402109 0 0 0
175 2 11.370847 6.597087 4.707636 0 0 0
176 2 9.685719 7.523312 2.109325 0 0 0
177 2 11.403843 6.626900 9.906000 0 0 0
178 2 9.717806 7.585075 7.333834 0 0 0
179 2 11.451518 6.452523 15.062375 0 0 0
180 2 9.754179 7.580237 12.474997 0 0 0
181 2 9.814455 9.406136 4.698287 0 0 0
182 2 8.221560 10.372974 1.893195 0 0 0
183 2 9.624274 9.297122 9.977938 0 0 0
184 2 8.022545 10.249785 7.253182 0 0 0
185 2 9.733914 9.282835 15.192623 0 0 0
186 2 8.009035 10.237635 12.628221 0 0 0
187 2 12.947505 7.456261 2.087142 0 0 0
188 2 0.124709 7.605663 7.292161 0 0 0
189 2 12.921264 7.453336 12.604770 0 0 0
190 2 11.385786 10.245060 2.131350 0 0 0
191 2 11.324081 10.233810 7.213569 0 0 0
192 2 11.266144 10.373874 12.642324 0 0 0
