LAMMPS DATA file

192 atoms
0 bonds
0 angles
0 dihedrals
0 impropers

2 atom types
0 bond types
0 angle types

0.0 12.990503 xlo xhi
0.0 11.250148 ylo yhi
0.0 15.845291 zlo zhi

Masses

1 69.723
2 14.0067

Atoms

1 1 1.518850 0.878637 2.484383 0 0 0
2 1 1.533919 1.023111 7.796358 0 0 0
3 1 1.717345 1.019747 13.324305 0 0 0
4 1 12.863637 3.816725 2.534613 0 0 0
5 1 12.868993 3.674298 7.932469 0 0 0
6 1 0.069734 3.812900 13.151116 0 0 0
7 1 4.925609 0.899404 2.672150 0 0 0
8 1 3.236974 1.811836 5.254774 0 0 0
9 1 4.907682 1.012018 7.983333 0 0 0
10 1 3.164487 1.892950 10.646134 0 0 0
11 1 4.938730 0.881404 13.149373 0 0 0
12 1 3.307512 1.827137 15.821998 0 0 0
13 1 3.335961 3.858913 2.671674 0 0 0
14 1 1.539764 4.589498 5.335109 0 0 0
15 1 3.177477 3.787025 8.026273 0 0 0
16 1 1.684868 4.777488 10.477065 0 0 0
17 1 3.347263 3.647861 13.196750 0 0 0
18 1 1.644728 4.788626 0.036444 0 0 0
19 1 1.616668 6.477385 2.565511 0 0 0
20 1 1.693702 6.619025 7.764509 0 0 0
21 1 1.714357 6.653113 13.254744 0 0 0
22 1 12.871148 9.374074 2.694492 0 0 0
23 1 12.870179 9.318948 7.858947 0 0 0
24 1 12.903938 9.366086 13.331277 0 0 0
25 1 8.001890 0.888447 2.735214 0 0 0
26 1 6.597357 1.940313 5.125001 0 0 0
27 1 8.009684 1.032212 7.921695 0 0 0
28 1 6.376389 1.940426 10.630289 0 0 0
29 1 8.013971 1.002647 13.264568 0 0 0
30 1 6.466673 1.966413 15.721697 0 0 0
31 1 6.484989 3.756199 2.671516 0 0 0
32 1 4.755044 4.579935 5.153205 0 0 0
33 1 6.509671 3.773637 8.007101 0 0 0
34 1 4.989522 4.618748 10.547418 0 0 0
35 1 6.602034 3.731112 13.134954 0 0 0
36 1 4.808435 4.762188 0.055459 0 0 0
37 1 4.743093 6.593487 2.735214 0 0 0
38 1 3.289585 7.463011 5.421783 0 0 0
39 1 4.880662 6.577624 7.795408 0 0 0
40 1 3.249964 7.571012 10.600024 0 0 0
41 1 4.775309 6.570087 13.341893 0 0 0
42 1 3.137986 7.485849 0.083980 0 0 0
43 1 3.160200 9.418512 2.614631 0 0 0
44 1 1.706952 10.324936 5.367592 0 0 0
45 1 3.187350 9.381724 7.964477 0 0 0
46 1 1.540933 10.244722 10.448860 0 0 0
47 1 3.373893 9.318948 13.158563 0 0 0
48 1 1.618487 10.268685 0.061797 0 0 0
49 1 11.359156 0.966016 2.543011 0 0 0
50 1 9.714688 1.801036 5.301834 0 0 0
51 1 11.308753 0.845719 7.841359 0 0 0
52 1 9.830433 1.931988 10.515093 0 0 0
53 1 11.392541 0.902127 13.178845 0 0 0
54 1 9.680003 1.859762 15.692700 0 0 0
55 1 9.633367 3.713899 2.543011 0 0 0
56 1 8.182198 4.687149 5.139578 0 0 0
57 1 9.714298 3.695786 7.998069 0 0 0
58 1 8.217533 4.770513 10.466924 0 0 0
59 1 9.728718 3.642573 13.286593 0 0 0
60 1 8.093213 4.715275 0.144192 0 0 0
61 1 8.087628 6.606875 2.620336 0 0 0
62 1 6.480572 7.442423 5.170952 0 0 0
63 1 8.156607 6.452973 7.762132 0 0 0
64 1 6.472778 7.460423 10.508755 0 0 0
65 1 8.052553 6.542299 13.055727 0 0 0
66 1 6.611647 7.395960 0.004754 0 0 0
67 1 6.501357 9.282160 2.550458 0 0 0
68 1 4.841171 10.295686 5.362997 0 0 0
69 1 6.586965 9.475437 7.796200 0 0 0
70 1 4.790248 10.224697 10.543615 0 0 0
71 1 6.417828 9.326373 13.148264 0 0 0
72 1 4.900148 10.347886 0.145777 0 0 0
73 1 12.970628 1.950438 5.177924 0 0 0
74 1 12.962184 1.889012 10.702860 0 0 0
75 1 12.872030 1.777073 0.123593 0 0 0
76 1 11.417093 4.767250 5.362522 0 0 0
77 1 11.485683 4.661161 10.532998 0 0 0
78 1 11.304596 4.687037 15.684461 0 0 0
79 1 11.465158 6.524298 2.538416 0 0 0
80 1 9.686239 7.601388 5.321165 0 0 0
81 1 11.309272 6.519236 7.899036 0 0 0
82 1 9.844593 7.460761 10.518262 0 0 0
83 1 11.438268 6.597987 13.042417 0 0 0
84 1 9.635706 7.443773 15.764321 0 0 0
85 1 9.642201 9.373961 2.626357 0 0 0
86 1 8.128418 10.410325 5.137519 0 0 0
87 1 9.634926 9.443037 7.920110 0 0 0
88 1 8.090485 10.226835 10.607313 0 0 0
89 1 9.680783 9.379699 13.051290 0 0 0
90 1 8.239227 10.409875 0.001585 0 0 0
91 1 0.032476 7.577875 5.395321 0 0 0
92 1 12.874628 7.403610 10.461536 0 0 0
93 1 0.010392 7.510486 15.764321 0 0 0
94 1 11.291216 10.365774 5.246534 0 0 0
95 1 11.370717 10.360037 10.713793 0 0 0
96 1 11.277316 10.306823 15.833248 0 0 0
97 2 1.604067 0.934662 4.783693 0 0 0
98 2 1.515082 0.828112 10.063027 0 0 0
99 2 1.740727 1.001477 15.055561 0 0 0
100 2 12.969094 3.718399 4.781316 0 0 0
101 2 0.114070 3.640998 9.900296 0 0 0
102 2 0.103449 3.669911 15.109911 0 0 0
103 2 4.775699 0.983207 4.573109 0 0 0
104 2 3.144611 1.812286 2.097124 0 0 0
105 2 4.946264 0.866790 9.875419 0 0 0
106 2 3.185141 1.897225 7.321158 0 0 0
107 2 4.761409 0.913366 15.105474 0 0 0
108 2 3.363501 1.843449 12.483395 0 0 0
109 2 3.142663 3.782637 4.625874 0 0 0
110 2 1.563147 4.739912 2.128498 0 0 0
111 2 3.368567 3.823925 9.810453 0 0 0
112 2 1.697729 4.678487 7.149237 0 0 0
113 2 3.217228 3.652698 15.320653 0 0 0
114 2 1.747353 4.732150 12.469135 0 0 0
115 2 1.669410 6.470298 4.775454 0 0 0
116 2 1.666682 6.475585 9.776544 0 0 0
117 2 1.503261 6.578749 15.298153 0 0 0
118 2 0.069721 9.487588 4.660258 0 0 0
119 2 12.956012 9.266410 9.824872 0 0 0
120 2 0.046579 9.359111 15.084717 0 0 0
121 2 8.130106 0.957444 4.725699 0 0 0
122 2 6.487977 1.969226 2.101402 0 0 0
123 2 8.124780 0.944022 9.965737 0 0 0
124 2 6.542407 1.805086 7.259045 0 0 0
125 2 8.149462 1.033349 15.084717 0 0 0
126 2 6.589822 1.824212 12.573080 0 0 0
127 2 6.397823 3.754062 4.494200 0 0 0
128 2 4.837793 4.726750 1.835994 0 0 0
129 2 6.534743 3.838438 9.893007 0 0 0
130 2 4.966789 4.743963 7.251439 0 0 0
131 2 6.522921 3.795125 15.106108 0 0 0
132 2 4.859487 4.585785 12.584964 0 0 0
133 2 4.745950 6.590562 4.530169 0 0 0
134 2 3.249185 7.495524 2.052916 0 0 0
135 2 4.920933 6.613400 9.890155 0 0 0
136 2 3.203068 7.510711 7.381529 0 0 0
137 2 4.979130 6.590899 15.195951 0 0 0
138 2 3.257369 7.423860 12.435067 0 0 0
139 2 3.272438 9.399161 4.672776 0 0 0
140 2 1.510406 10.214460 2.019007 0 0 0
141 2 3.223853 9.361361 9.775435 0 0 0
142 2 1.599780 10.225485 7.425420 0 0 0
143 2 3.301147 9.367323 15.070297 0 0 0
144 2 1.689025 10.417300 12.665933 0 0 0
145 2 11.465418 0.864079 4.559799 0 0 0
146 2 9.834201 1.866625 2.143709 0 0 0
147 2 11.309792 0.905603 9.984910 0 0 0
148 2 9.754959 1.891150 7.132916 0 0 0
149 2 11.258350 0.869456 15.316375 0 0 0
150 2 9.787954 1.899138 12.407655 0 0 0
151 2 9.744956 3.705236 4.544746 0 0 0
152 2 8.190772 4.775913 1.844550 0 0 0
153 2 9.757557 3.671598 10.063819 0 0 0
154 2 8.125820 4.695812 7.335260 0 0 0
155 2 9.825627 3.834276 15.229067 0 0 0
156 2 7.991887 4.625048 12.407813 0 0 0
157 2 8.122832 6.650975 4.652336 0 0 0
158 2 6.528507 7.420035 2.064958 0 0 0
159 2 8.062036 6.645575 10.004558 0 0 0
160 2 6.492264 7.606675 7.276474 0 0 0
161 2 8.045668 6.494261 15.037656 0 0 0
162 2 6.454851 7.575512 12.478325 0 0 0
163 2 6.536172 9.300835 4.562018 0 0 0
164 2 4.837793 10.346199 2.007598 0 0 0
165 2 6.498369 9.276197 9.996794 0 0 0
166 2 4.749328 10.353174 7.392303 0 0 0
167 2 6.461736 9.402986 15.251568 0 0 0
168 2 4.945485 10.342486 12.609999 0 0 0
169 2 0.079242 1.847049 1.842807 0 0 0
170 2 12.887359 1.884175 7.378676 0 0 0
171 2 0.007794 1.966976 12.419697 0 0 0
172 2 11.461261 4.768038 2.107424 0 0 0
173 2 11.256141 4.652049 7.181719 0 0 0
174 2 11.456195 4.605248 12.670528 0 0 0
175 2 11.287059 6.640625 4.534447 0 0 0
176 2 9.787175 7.436348 1.848195 0 0 0
177 2 11.348244 6.518223 9.935948 0 0 0
178 2 9.676886 7.554137 7.180135 0 0 0
179 2 11.236915 6.450722 15.325407 0 0 0
180 2 9.623235 7.508461 12.451863 0 0 0
181 2 9.655451 9.419524 4.680540 0 0 0
182 2 8.192980 10.317623 2.079853 0 0 0
183 2 9.763143 9.378574 9.873517 0 0 0
184 2 8.139849 10.311098 7.286615 0 0 0
185 2 9.834980 9.418174 15.046529 0 0 0
186 2 8.223248 10.257323 12.567375 0 0 0
187 2 0.029878 7.572137 2.001577 0 0 0
188 2 12.867483 7.576075 7.413853 0 0 0
189 2 0.085737 7.478086 12.550738 0 0 0
190 2 11.406311 10.356774 2.074782 0 0 0
191 2 11.465028 10.251923 7.363148 0 0 0
192 2 11.432422 10.421125 12.426352 0 0 0
