LAMMPS DATA file

64 atoms

1 atom types

0.000000 10.862000 xlo xhi
0.000000 10.862000 ylo yhi
0.000000 10.862000 zlo zhi

Masses

1 28.0855

Atoms

1 1 6.806180 1.377790 1.359230
2 1 9.473950 4.073090 1.392560
3 1 9.543530 1.312710 4.086680
4 1 1.309770 1.390670 1.346710
5 1 4.041260 4.060470 1.341710
6 1 6.725340 6.728660 1.386670
7 1 9.450770 9.456880 1.352040
8 1 4.100830 1.311350 4.033140
9 1 6.793080 4.052440 4.125070
10 1 9.480720 6.770260 4.088650
11 1 6.848310 1.386770 6.765680
12 1 9.507850 4.071400 6.817150
13 1 9.506750 1.381120 9.468400
14 1 1.367230 6.768980 1.355580
15 1 4.065900 9.489890 1.293960
16 1 1.387820 4.097390 4.063680
17 1 4.101630 6.758350 4.090420
18 1 6.819050 9.477900 4.072710
19 1 1.355350 1.413400 6.800200
20 1 4.045480 4.118410 6.807860
21 1 6.769240 6.837690 6.800770
22 1 9.542720 9.541130 6.796350
23 1 4.096130 1.360910 9.501970
24 1 6.813750 4.068530 9.520230
25 1 9.489020 6.786830 9.512090
26 1 1.356110 9.524740 4.044990
27 1 1.336840 6.821240 6.807360
28 1 4.101840 9.523840 6.763790
29 1 1.358150 4.085200 9.513370
30 1 4.049240 6.803540 9.479430
31 1 6.743110 9.463740 9.546410
32 1 1.372870 9.514260 9.516210
33 1 5.427370 0.017020 0.024361
34 1 8.230900 2.741480 0.007763
35 1 8.179460 -0.025126 2.694340
36 1 -0.025158 -0.013038 -0.014394
37 1 2.724110 2.701280 -0.000331
38 1 5.415690 5.412180 -0.035552
39 1 8.059000 8.084880 0.021967
40 1 2.712980 0.038041 2.654980
41 1 5.426070 2.703140 2.716510
42 1 8.132160 5.424390 2.738890
43 1 5.470220 0.002365 5.384240
44 1 8.206540 2.688250 5.410960
45 1 8.128370 -0.001472 8.145490
46 1 -0.044384 5.421380 0.018273
47 1 2.689390 8.159620 0.010382
48 1 0.017018 2.694960 2.759270
49 1 2.748790 5.412050 2.716230
50 1 5.398470 8.127060 2.723470
51 1 0.035658 0.012444 5.422380
52 1 2.741150 2.706890 5.442690
53 1 5.429850 5.414290 5.469370
54 1 8.131600 8.209860 5.444480
55 1 2.728350 -0.044542 8.157940
56 1 5.460950 2.684900 8.141490
57 1 8.115610 5.429460 8.103050
58 1 -0.043793 8.130890 2.703700
59 1 0.020848 5.440210 5.417560
60 1 2.699830 8.160180 5.396450
61 1 0.046979 2.768000 8.128770
62 1 2.672850 5.497380 8.177650
63 1 5.405350 8.153870 8.146890
64 1 0.033950 8.154140 8.155660
