LAMMPS DATA file

192 atoms
0 bonds
0 angles
0 dihedrals
0 impropers

2 atom types
0 bond types
0 angle types

0.0 12.990503 xlo xhi
0.0 11.250148 ylo yhi
0.0 15.845291 zlo zhi

Masses

1 69.723
2 14.0067

Atoms

1 1 1.641220 0.909698 2.544278 0 0 0
2 1 1.699677 0.857734 7.913772 0 0 0
3 1 1.497285 0.866993 13.194215 0 0 0
4 1 0.087876 3.669236 2.709069 0 0 0
5 1 0.049643 3.645273 7.913613 0 0 0
6 1 0.122473 3.662823 13.275977 0 0 0
7 1 4.907422 0.958704 2.634913 0 0 0
8 1 3.265293 1.858524 5.141955 0 0 0
9 1 4.817009 0.951313 7.959406 0 0 0
10 1 3.359604 1.982501 10.429212 0 0 0
11 1 4.913398 0.960639 13.190571 0 0 0
12 1 3.210343 1.869550 0.049120 0 0 0
13 1 3.367009 3.657536 2.729827 0 0 0
14 1 1.647456 4.780300 5.149878 0 0 0
15 1 3.193975 3.649098 7.918526 0 0 0
16 1 1.693572 4.638774 10.471043 0 0 0
17 1 3.203848 3.739549 13.274234 0 0 0
18 1 1.626411 4.661161 0.123593 0 0 0
19 1 1.744754 6.591462 2.518767 0 0 0
20 1 1.654600 6.536224 8.072859 0 0 0
21 1 1.568473 6.609012 13.210060 0 0 0
22 1 12.910797 9.417724 2.492940 0 0 0
23 1 12.908518 9.272935 8.039108 0 0 0
24 1 0.088283 9.289247 13.170606 0 0 0
25 1 8.020337 0.953731 2.777838 0 0 0
26 1 6.431988 1.985201 5.228629 0 0 0
27 1 8.043330 0.974825 8.067154 0 0 0
28 1 6.527078 1.776848 10.517945 0 0 0
29 1 8.032418 0.877050 13.056995 0 0 0
30 1 6.599695 1.940988 15.799498 0 0 0
31 1 6.581509 3.807163 2.674051 0 0 0
32 1 4.843899 4.655874 5.145917 0 0 0
33 1 6.454072 3.761037 7.904582 0 0 0
34 1 4.909241 4.690637 10.657701 0 0 0
35 1 6.390548 3.741912 13.227332 0 0 0
36 1 4.790118 4.712575 15.697771 0 0 0
37 1 4.891054 6.639612 2.635389 0 0 0
38 1 3.231777 7.421160 5.126744 0 0 0
39 1 4.938080 6.629262 7.851817 0 0 0
40 1 3.147599 7.472011 10.662296 0 0 0
41 1 4.960294 6.599787 13.344745 0 0 0
42 1 3.362722 7.412948 0.041198 0 0 0
43 1 3.242689 9.277547 2.761517 0 0 0
44 1 1.623033 10.373649 5.136885 0 0 0
45 1 3.185921 9.409061 7.801112 0 0 0
46 1 1.659797 10.286798 10.642172 0 0 0
47 1 3.287377 9.348423 13.135587 0 0 0
48 1 1.582243 10.406950 15.825959 0 0 0
49 1 11.351751 0.927203 2.776570 0 0 0
50 1 9.669871 1.961013 5.124050 0 0 0
51 1 11.325640 0.997371 7.867345 0 0 0
52 1 9.773795 1.864487 10.402750 0 0 0
53 1 11.392412 0.960369 13.246346 0 0 0
54 1 9.701957 1.873487 0.058628 0 0 0
55 1 9.843684 3.649886 2.508151 0 0 0
56 1 8.158036 4.747000 5.430973 0 0 0
57 1 9.645579 3.719524 7.973033 0 0 0
58 1 8.086848 4.769388 10.492118 0 0 0
59 1 9.647657 3.788937 13.104689 0 0 0
60 1 8.214805 4.744075 15.814234 0 0 0
61 1 7.989159 6.483685 2.563768 0 0 0
62 1 6.592031 7.522862 5.219597 0 0 0
63 1 8.063075 6.548036 8.045129 0 0 0
64 1 6.605671 7.501261 10.598439 0 0 0
65 1 8.176093 6.455448 13.222737 0 0 0
66 1 6.377428 7.482699 15.829604 0 0 0
67 1 6.371192 9.277210 2.769757 0 0 0
68 1 4.880272 10.282635 5.233224 0 0 0
69 1 6.404708 9.296335 7.869880 0 0 0
70 1 4.828830 10.376574 10.553914 0 0 0
71 1 6.486158 9.292172 13.321453 0 0 0
72 1 4.916776 10.388049 0.044367 0 0 0
73 1 0.126008 1.982951 5.197097 0 0 0
74 1 0.032476 1.926363 10.557400 0 0 0
75 1 0.090934 1.805536 15.720747 0 0 0
76 1 11.237565 4.609523 5.287098 0 0 0
77 1 11.369418 4.661724 10.497980 0 0 0
78 1 11.237695 4.758475 0.038029 0 0 0
79 1 11.353310 6.504948 2.731570 0 0 0
80 1 9.827056 7.579337 5.265865 0 0 0
81 1 11.488931 6.639387 7.783524 0 0 0
82 1 9.674677 7.571575 10.528245 0 0 0
83 1 11.357987 6.664138 13.346330 0 0 0
84 1 9.811857 7.516899 0.126762 0 0 0
85 1 9.741708 9.299935 2.580247 0 0 0
86 1 8.066193 10.325724 5.139262 0 0 0
87 1 9.630899 9.300160 8.058915 0 0 0
88 1 8.199865 10.360037 10.707138 0 0 0
89 1 9.872393 9.484775 13.088052 0 0 0
90 1 8.238187 10.319536 15.704901 0 0 0
91 1 12.941659 7.589012 5.382328 0 0 0
92 1 12.861248 7.531637 10.654056 0 0 0
93 1 12.924252 7.402035 15.764796 0 0 0
94 1 11.263416 10.308961 5.250654 0 0 0
95 1 11.335903 10.399637 10.532840 0 0 0
96 1 11.310571 10.210972 15.750853 0 0 0
97 2 1.556002 0.831588 4.691157 0 0 0
98 2 1.495856 0.962473 9.879697 0 0 0
99 2 1.558601 0.971810 15.133520 0 0 0
100 2 12.887535 3.758000 4.520820 0 0 0
101 2 0.099623 3.787475 10.018977 0 0 0
102 2 0.068243 3.819088 15.232712 0 0 0
103 2 4.926129 0.979955 4.570257 0 0 0
104 2 3.255810 1.958988 1.845026 0 0 0
105 2 4.871569 0.922377 10.036882 0 0 0
106 2 3.281401 1.983739 7.294855 0 0 0
107 2 4.959904 0.930489 15.204824 0 0 0
108 2 3.164227 1.905325 12.696356 0 0 0
109 2 3.256459 3.745512 4.720154 0 0 0
110 2 1.517940 4.773213 1.828863 0 0 0
111 2 3.250614 3.790175 9.929610 0 0 0
112 2 1.618227 4.647211 7.300084 0 0 0
113 2 3.354927 3.791075 15.332062 0 0 0
114 2 1.519629 4.690074 12.426194 0 0 0
115 2 1.635634 6.605075 4.515274 0 0 0
116 2 1.695910 6.539824 10.034981 0 0 0
117 2 1.573670 6.463773 15.101671 0 0 0
118 2 12.882121 9.476450 4.473759 0 0 0
119 2 12.890392 9.265397 9.818851 0 0 0
120 2 12.863569 9.407149 15.195951 0 0 0
121 2 8.052943 0.868601 4.497369 0 0 0
122 2 6.461087 1.764248 2.018690 0 0 0
123 2 8.113609 0.894342 9.986177 0 0 0
124 2 6.583457 1.821624 7.272355 0 0 0
125 2 8.105295 0.901778 15.297994 0 0 0
126 2 6.620610 1.903525 12.448694 0 0 0
127 2 6.397303 3.768012 4.572634 0 0 0
128 2 4.811163 4.698849 1.884956 0 0 0
129 2 6.541628 3.650111 9.761174 0 0 0
130 2 4.815969 4.592423 7.394839 0 0 0
131 2 6.585276 3.726612 15.085667 0 0 0
132 2 4.853382 4.668699 12.622200 0 0 0
133 2 4.847146 6.664250 4.757548 0 0 0
134 2 3.364930 7.465486 1.919657 0 0 0
135 2 4.971855 6.497298 9.791756 0 0 0
136 2 3.252952 7.591375 7.237020 0 0 0
137 2 4.797653 6.467823 15.327783 0 0 0
138 2 3.274386 7.472573 12.601918 0 0 0
139 2 3.323490 9.337623 4.688146 0 0 0
140 2 1.546909 10.415837 2.053233 0 0 0
141 2 3.161109 9.362261 9.951001 0 0 0
142 2 1.735531 10.319198 7.308006 0 0 0
143 2 3.294651 9.470375 15.080597 0 0 0
144 2 1.599261 10.270485 12.611108 0 0 0
145 2 11.468146 0.935416 4.723956 0 0 0
146 2 9.697800 1.886200 1.950872 0 0 0
147 2 11.469835 0.977143 10.012798 0 0 0
148 2 9.641551 1.825337 7.352690 0 0 0
149 2 11.292904 0.832668 15.170440 0 0 0
150 2 9.856414 1.821511 12.571812 0 0 0
151 2 9.706374 3.643586 4.627142 0 0 0
152 2 8.204022 4.633374 1.842173 0 0 0
153 2 9.677016 3.786237 9.854662 0 0 0
154 2 8.160504 4.578023 7.337003 0 0 0
155 2 9.714558 3.645048 15.160774 0 0 0
156 2 8.175313 4.782326 12.703011 0 0 0
157 2 8.244683 6.651763 4.742971 0 0 0
158 2 6.573454 7.512511 1.960379 0 0 0
159 2 8.022155 6.597424 10.024206 0 0 0
160 2 6.436664 7.576637 7.131807 0 0 0
161 2 8.087628 6.510461 15.080597 0 0 0
162 2 6.529287 7.458736 12.695088 0 0 0
163 2 6.494862 9.428862 4.472650 0 0 0
164 2 4.898849 10.329886 2.083497 0 0 0
165 2 6.535522 9.460250 10.036249 0 0 0
166 2 4.781025 10.243485 7.360137 0 0 0
167 2 6.381065 9.350336 15.127182 0 0 0
168 2 4.932234 10.223572 12.642324 0 0 0
169 2 0.074046 1.882262 1.907931 0 0 0
170 2 12.879045 1.903300 7.117229 0 0 0
171 2 12.876706 1.791699 12.533942 0 0 0
172 2 11.411508 4.767700 1.985573 0 0 0
173 2 11.249516 4.645636 7.312760 0 0 0
174 2 11.441126 4.640124 12.548995 0 0 0
175 2 11.449440 6.584037 4.638550 0 0 0
176 2 9.698970 7.480224 2.079377 0 0 0
177 2 11.325900 6.554224 9.866862 0 0 0
178 2 9.789513 7.515324 7.315929 0 0 0
179 2 11.364352 6.539711 15.183433 0 0 0
180 2 9.630250 7.480111 12.698257 0 0 0
181 2 9.815754 9.426612 4.711280 0 0 0
182 2 8.185706 10.389849 2.071772 0 0 0
183 2 9.867197 9.287672 9.875894 0 0 0
184 2 8.116986 10.258223 7.121190 0 0 0
185 2 9.866157 9.426049 15.079012 0 0 0
186 2 8.027611 10.358686 12.511917 0 0 0
187 2 12.880474 7.479999 1.873072 0 0 0
188 2 0.077943 7.596888 7.110891 0 0 0
189 2 0.038972 7.540299 12.471670 0 0 0
190 2 11.455805 10.266323 1.836152 0 0 0
191 2 11.261078 10.379612 7.334943 0 0 0
192 2 11.440346 10.340574 12.652781 0 0 0
