LAMMPS DATA file

64 atoms

1 atom types

0.000000 10.862000 xlo xhi
0.000000 10.862000 ylo yhi
0.000000 10.862000 zlo zhi

Masses

1 28.0855

Atoms

1 1 6.848490 1.412240 1.373870
2 1 9.498700 4.111730 1.409070
3 1 9.506910 1.357000 4.067480
4 1 1.347220 1.391250 1.362870
5 1 4.041780 4.064600 1.311460
6 1 6.810220 6.783220 1.347640
7 1 9.502710 9.513490 1.319780
8 1 4.034180 1.363720 4.094100
9 1 6.795200 4.072480 4.116090
10 1 9.486670 6.821140 4.071390
11 1 6.732700 1.339480 6.771750
12 1 9.507250 4.043510 6.730050
13 1 9.512090 1.409030 9.511180
14 1 1.418210 6.782470 1.369080
15 1 4.108450 9.536110 1.388670
16 1 1.371610 4.056360 4.030740
17 1 4.088100 6.777440 4.085120
18 1 6.763950 9.556100 4.042270
19 1 1.323510 1.290170 6.815530
20 1 4.055880 4.063760 6.800500
21 1 6.794820 6.802400 6.764320
22 1 9.498130 9.455200 6.791490
23 1 4.060650 1.325510 9.553350
24 1 6.805340 4.074020 9.471570
25 1 9.525120 6.783100 9.472420
26 1 1.323230 9.545710 4.079160
27 1 1.377800 6.772510 6.806150
28 1 4.034770 9.499650 6.808160
29 1 1.341240 4.070250 9.481830
30 1 4.099560 6.830740 9.497580
31 1 6.766410 9.498890 9.530460
32 1 1.391390 9.428980 9.572620
33 1 5.459350 0.020140 0.020358
34 1 8.122940 2.794740 0.022849
35 1 8.177710 0.027322 2.730880
36 1 0.000628 0.011607 -0.035958
37 1 2.651250 2.734420 -0.027978
38 1 5.405990 5.424690 -0.030205
39 1 8.158690 8.156840 -0.000074
40 1 2.732310 -0.012553 2.686610
41 1 5.404140 2.719710 2.711510
42 1 8.116190 5.437860 2.736920
43 1 5.425140 -0.005207 5.420770
44 1 8.153140 2.677450 5.456190
45 1 8.139500 -0.025740 8.148360
46 1 0.029072 5.415730 -0.007504
47 1 2.807230 8.144630 0.018270
48 1 -0.051868 2.733400 2.707900
49 1 2.781200 5.424460 2.704890
50 1 5.474080 8.104990 2.709830
51 1 -0.072906 -0.003212 5.446710
52 1 2.655640 2.734400 5.427210
53 1 5.431570 5.468850 5.422090
54 1 8.097930 8.180200 5.420400
55 1 2.676520 0.000364 8.218510
56 1 5.429520 2.700390 8.153300
57 1 8.187630 5.414110 8.110140
58 1 0.044673 8.128540 2.691220
59 1 0.012480 5.401890 5.421640
60 1 2.683890 8.136130 5.449500
61 1 -0.007630 2.679830 8.116940
62 1 2.724770 5.426830 8.155670
63 1 5.453640 8.133640 8.124660
64 1 0.059260 8.117280 8.156680
