ITEM: TIMESTEP
0
ITEM: NUMBER OF ATOMS
65
ITEM: BOX BOUNDS pp pp pp
0.0000000000000000e+00 6.0000000000000000e+00
0.0000000000000000e+00 6.0000000000000000e+00
0.0000000000000000e+00 6.0000000000000000e+00
ITEM: ATOMS id type x y z fx fy fz
1 2 0.75 0.75 0.75 -9.9476e-14 1.13687e-13 -1.30784e-13
2 1 0 0 0 -222.549 -222.549 -222.549
3 1 0 0 1.5 -222.549 -222.549 222.549
4 1 0 0 3 107.332 107.332 49.1568
5 1 0 0 4.5 107.332 107.332 -49.1568
6 1 0 1.5 0 -222.549 222.549 -222.549
7 1 0 1.5 1.5 -222.549 222.549 222.549
8 1 0 1.5 3 107.332 -107.332 49.1568
9 1 0 1.5 4.5 107.332 -107.332 -49.1568
10 1 0 3 0 107.332 49.1568 107.332
11 1 0 3 1.5 107.332 49.1568 -107.332
12 1 0 3 3 23.9738 -54.5585 -54.5585
13 1 0 3 4.5 23.9738 -54.5585 54.5585
14 1 0 4.5 0 107.332 -49.1568 107.332
15 1 0 4.5 1.5 107.332 -49.1568 -107.332
16 1 0 4.5 3 23.9738 54.5585 -54.5585
17 1 0 4.5 4.5 23.9738 54.5585 54.5585
18 1 1.5 0 0 222.549 -222.549 -222.549
19 1 1.5 0 1.5 222.549 -222.549 222.549
20 1 1.5 0 3 -107.332 107.332 49.1568
21 1 1.5 0 4.5 -107.332 107.332 -49.1568
22 1 1.5 1.5 0 222.549 222.549 -222.549
23 1 1.5 1.5 1.5 222.549 222.549 222.549
24 1 1.5 1.5 3 -107.332 -107.332 49.1568
25 1 1.5 1.5 4.5 -107.332 -107.332 -49.1568
26 1 1.5 3 0 -107.332 49.1568 107.332
27 1 1.5 3 1.5 -107.332 49.1568 -107.332
28 1 1.5 3 3 -23.9738 -54.5585 -54.5585
29 1 1.5 3 4.5 -23.9738 -54.5585 54.5585
30 1 1.5 4.5 0 -107.332 -49.1568 107.332
31 1 1.5 4.5 1.5 -107.332 -49.1568 -107.332
32 1 1.5 4.5 3 -23.9738 54.5585 -54.5585
33 1 1.5 4.5 4.5 -23.9738 54.5585 54.5585
34 1 3 0 0 49.1568 107.332 107.332
35 1 3 0 1.5 49.1568 107.332 -107.332
36 1 3 0 3 -54.5585 23.9738 -54.5585
37 1 3 0 4.5 -54.5585 23.9738 54.5585
38 1 3 1.5 0 49.1568 -107.332 107.332
39 1 3 1.5 1.5 49.1568 -107.332 -107.332
40 1 3 1.5 3 -54.5585 -23.9738 -54.5585
41 1 3 1.5 4.5 -54.5585 -23.9738 54.5585
42 1 3 3 0 -54.5585 -54.5585 23.9738
43 1 3 3 1.5 -54.5585 -54.5585 -23.9738
44 1 3 3 3 -35.9616 -35.9616 -35.9616
45 1 3 3 4.5 -35.9616 -35.9616 35.9616
46 1 3 4.5 0 -54.5585 54.5585 23.9738
47 1 3 4.5 1.5 -54.5585 54.5585 -23.9738
48 1 3 4.5 3 -35.9616 35.9616 -35.9616
49 1 3 4.5 4.5 -35.9616 35.9616 35.9616
50 1 4.5 0 0 -49.1568 107.332 107.332
51 1 4.5 0 1.5 -49.1568 107.332 -107.332
52 1 4.5 0 3 54.5585 23.9738 -54.5585
53 1 4.5 0 4.5 54.5585 23.9738 54.5585
54 1 4.5 1.5 0 -49.1568 -107.332 107.332
55 1 4.5 1.5 1.5 -49.1568 -107.332 -107.332
56 1 4.5 1.5 3 54.5585 -23.9738 -54.5585
57 1 4.5 1.5 4.5 54.5585 -23.9738 54.5585
58 1 4.5 3 0 54.5585 -54.5585 23.9738
59 1 4.5 3 1.5 54.5585 -54.5585 -23.9738
60 1 4.5 3 3 35.9616 -35.9616 -35.9616
61 1 4.5 3 4.5 35.9616 -35.9616 35.9616
62 1 4.5 4.5 0 54.5585 54.5585 23.9738
63 1 4.5 4.5 1.5 54.5585 54.5585 -23.9738
64 1 4.5 4.5 3 35.9616 35.9616 -35.9616
65 1 4.5 4.5 4.5 35.9616 35.9616 35.9616
ITEM: TIMESTEP
100
ITEM: NUMBER OF ATOMS
36
ITEM: BOX BOUNDS pp pp pp
0.0000000000000000e+00 6.0000000000000000e+00
0.0000000000000000e+00 6.0000000000000000e+00
0.0000000000000000e+00 6.0000000000000000e+00
ITEM: ATOMS id type x y z fx fy fz
2 1 2.36131 3.98208 1.61516 51.2546 24.1663 -48.1598
3 1 2.12245 1.15427 4.25753 56.0565 -38.1816 168.018
6 1 3.05906 4.04998 0.0905313 120.612 168.42 48.9815
7 1 5.1305 4.80695 3.59959 -59.5976 171.267 -119.047
10 1 4.70291 1.74277 0.180922 -40.1802 -42.6153 319.642
12 1 0.44068 1.97973 0.8082 -132.042 -77.4558 -16.7854
13 1 4.83578 1.92056 2.63966 0.437544 -166.07 -12.4981
14 1 2.35854 1.10539 5.02422 17.912 30.462 -113.844
15 1 3.16843 4.67597 0.249189 55.2887 -185.918 -53.1707
23 1 5.65731 3.16197 5.41 -84.3397 -60.8632 20.7219
26 1 3.68287 3.51974 3.42391 74.9883 28.165 92.8906
28 1 1.64748 5.76253 4.29142 -7.08121 -4.0063 21.6653
29 1 1.59315 1.59682 5.11313 60.5926 -45.6343 -8.70821
30 1 4.5682 4.16369 0.999655 -70.4676 50.0009 18.9934
31 1 5.07669 4.42467 5.74863 -96.0288 -39.5298 3.53403
32 1 3.97328 4.73396 4.32889 -19.0176 49.7669 19.7044
33 1 0.142529 0.459208 4.43397 -15.7025 7.49533 9.49323
38 1 2.89316 4.54585 3.10937 75.9454 93.6474 10.1487
39 1 1.67662 0.436327 5.66087 41.7141 -8.1073 -4.72712
40 1 3.61512 2.87147 4.95156 33.7978 35.8607 19.1607
41 1 4.22605 2.94821 0.228012 -29.0227 42.704 -16.4226
42 1 4.85429 0.205338 2.26964 513.873 351.506 1133.19
43 1 3.61823 0.469902 1.45312 216.372 -5.28135 59.8263
44 1 1.74899 0.161882 2.15826 -60.0199 5.89969 8.4409
45 1 0.200253 4.95726 3.96972 40.131 76.2968 7.31752
46 1 4.81779 0.48604 2.86343 499.987 -667.907 -1448.18
47 1 4.88312 0.530985 2.39918 264.871 -1350.25 531.943
49 1 3.17107 0.624673 0.136341 118.335 -16.8608 80.3068
50 1 4.59364 1.63334 0.56461 119.497 46.9236 -284.71
51 1 3.14634 1.60993 5.27813 39.9341 -38.1581 22.29
52 1 2.54613 4.07637 3.92499 57.4498 25.2136 28.785
53 1 5.13988 1.41196 1.20225 -129.137 -108.004 32.6955
54 1 4.96684 5.93832 2.43565 -37.3416 1604.34 91.5523
55 1 5.36692 0.230597 2.65695 -1564.67 183.752 -614.215
57 1 3.72907 0.0699168 5.15503 30.1593 33.7444 -83.9987
64 1 5.10507 2.39825 5.94651 -144.565 -174.783 75.1679
