65
Atoms. Timestep: 0
2 0.75 0.75 0.75
1 0 0 0
1 0 0 1.5
1 0 0 3
1 0 0 4.5
1 0 1.5 0
1 0 1.5 1.5
1 0 1.5 3
1 0 1.5 4.5
1 0 3 0
1 0 3 1.5
1 0 3 3
1 0 3 4.5
1 0 4.5 0
1 0 4.5 1.5
1 0 4.5 3
1 0 4.5 4.5
1 1.5 0 0
1 1.5 0 1.5
1 1.5 0 3
1 1.5 0 4.5
1 1.5 1.5 0
1 1.5 1.5 1.5
1 1.5 1.5 3
1 1.5 1.5 4.5
1 1.5 3 0
1 1.5 3 1.5
1 1.5 3 3
1 1.5 3 4.5
1 1.5 4.5 0
1 1.5 4.5 1.5
1 1.5 4.5 3
1 1.5 4.5 4.5
1 3 0 0
1 3 0 1.5
1 3 0 3
1 3 0 4.5
1 3 1.5 0
1 3 1.5 1.5
1 3 1.5 3
1 3 1.5 4.5
1 3 3 0
1 3 3 1.5
1 3 3 3
1 3 3 4.5
1 3 4.5 0
1 3 4.5 1.5
1 3 4.5 3
1 3 4.5 4.5
1 4.5 0 0
1 4.5 0 1.5
1 4.5 0 3
1 4.5 0 4.5
1 4.5 1.5 0
1 4.5 1.5 1.5
1 4.5 1.5 3
1 4.5 1.5 4.5
1 4.5 3 0
1 4.5 3 1.5
1 4.5 3 3
1 4.5 3 4.5
1 4.5 4.5 0
1 4.5 4.5 1.5
1 4.5 4.5 3
1 4.5 4.5 4.5
36
Atoms. Timestep: 100
1 2.36131 3.98208 1.61516
1 2.12245 1.15427 4.25753
1 3.05906 4.04998 0.0905313
1 5.1305 4.80695 3.59959
1 4.70291 1.74277 0.180922
1 0.44068 1.97973 0.8082
1 4.83578 1.92056 2.63966
1 2.35854 1.10539 5.02422
1 3.16843 4.67597 0.249189
1 5.65731 3.16197 5.41
1 3.68287 3.51974 3.42391
1 1.64748 5.76253 4.29142
1 1.59315 1.59682 5.11313
1 4.5682 4.16369 0.999655
1 5.07669 4.42467 5.74863
1 3.97328 4.73396 4.32889
1 0.142529 0.459208 4.43397
1 2.89316 4.54585 3.10937
1 1.67662 0.436327 5.66087
1 3.61512 2.87147 4.95156
1 4.22605 2.94821 0.228012
1 4.85429 0.205338 2.26964
1 3.61823 0.469902 1.45312
1 1.74899 0.161882 2.15826
1 0.200253 4.95726 3.96972
1 4.81779 0.48604 2.86343
1 4.88312 0.530985 2.39918
1 3.17107 0.624673 0.136341
1 4.59364 1.63334 0.56461
1 3.14634 1.60993 5.27813
1 2.54613 4.07637 3.92499
1 5.13988 1.41196 1.20225
1 4.96684 5.93832 2.43565
1 5.36692 0.230597 2.65695
1 3.72907 0.0699168 5.15503
1 5.10507 2.39825 5.94651
