LAMMPS DATA file

192 atoms
0 bonds
0 angles
0 dihedrals
0 impropers

2 atom types
0 bond types
0 angle types

0.0 12.990503 xlo xhi
0.0 11.250148 ylo yhi
0.0 15.845291 zlo zhi

Masses

1 69.723
2 14.0067

Atoms

1 1 1.546909 0.974027 2.766905 0 0 0
2 1 1.495727 0.992961 8.012171 0 0 0
3 1 1.729815 1.044295 13.078386 0 0 0
4 1 0.004930 3.822463 2.678805 0 0 0
5 1 0.117932 3.850588 8.065094 0 0 0
6 1 12.878096 3.735949 13.142084 0 0 0
7 1 4.776348 0.855293 2.732362 0 0 0
8 1 3.254121 1.974964 5.430973 0 0 0
9 1 4.848056 0.908528 7.830584 0 0 0
10 1 3.233596 1.822412 10.545041 0 0 0
11 1 4.854031 0.883429 13.082823 0 0 0
12 1 3.226581 1.876525 15.784128 0 0 0
13 1 3.295561 3.737299 2.614948 0 0 0
14 1 1.699937 4.758588 5.356184 0 0 0
15 1 3.322841 3.750349 7.934688 0 0 0
16 1 1.657718 4.597148 10.477381 0 0 0
17 1 3.277634 3.706136 13.283582 0 0 0
18 1 1.563277 4.583985 15.775413 0 0 0
19 1 1.638492 6.668075 2.695284 0 0 0
20 1 1.680451 6.575824 7.927716 0 0 0
21 1 1.721372 6.538586 13.185659 0 0 0
22 1 12.914704 9.433024 2.650125 0 0 0
23 1 12.953453 9.420312 7.793348 0 0 0
24 1 12.862317 9.397024 13.249357 0 0 0
25 1 8.139849 1.029749 2.678488 0 0 0
26 1 6.501877 1.820949 5.134033 0 0 0
27 1 8.179340 0.861975 7.847539 0 0 0
28 1 6.432767 1.885637 10.571186 0 0 0
29 1 8.193890 1.020670 13.290079 0 0 0
30 1 6.617232 1.803174 0.131516 0 0 0
31 1 6.377038 3.691736 2.479788 0 0 0
32 1 4.915996 4.778613 5.299299 0 0 0
33 1 6.405747 3.750574 7.938649 0 0 0
34 1 4.790508 4.647999 10.626486 0 0 0
35 1 6.509022 3.669573 13.160940 0 0 0
36 1 4.844548 4.704812 15.687471 0 0 0
37 1 4.891574 6.659863 2.510845 0 0 0
38 1 3.307902 7.606000 5.310866 0 0 0
39 1 4.928467 6.518223 7.904106 0 0 0
40 1 3.130192 7.474261 10.514143 0 0 0
41 1 4.816229 6.633875 13.183282 0 0 0
42 1 3.327258 7.565387 15.770976 0 0 0
43 1 3.135518 9.274960 2.678963 0 0 0
44 1 1.604197 10.403912 5.250020 0 0 0
45 1 3.157732 9.384086 8.055746 0 0 0
46 1 1.665642 10.288936 10.481660 0 0 0
47 1 3.338040 9.475212 13.159989 0 0 0
48 1 1.511445 10.241010 0.019014 0 0 0
49 1 11.285110 0.890584 2.623188 0 0 0
50 1 9.703126 1.834112 5.263647 0 0 0
51 1 11.298100 0.831251 7.967329 0 0 0
52 1 9.654282 1.943126 10.529037 0 0 0
53 1 11.321873 0.992859 13.276927 0 0 0
54 1 9.658179 1.788999 15.736433 0 0 0
55 1 9.776003 3.826963 2.638558 0 0 0
56 1 8.032288 4.735750 5.405304 0 0 0
57 1 9.669741 3.833488 7.825831 0 0 0
58 1 8.206491 4.768375 10.565481 0 0 0
59 1 9.737032 3.837763 13.061115 0 0 0
60 1 8.121533 4.714712 0.068135 0 0 0
61 1 8.048916 6.454998 2.520986 0 0 0
62 1 6.565270 7.605775 5.240354 0 0 0
63 1 8.247281 6.523511 7.802221 0 0 0
64 1 6.465244 7.514199 10.600499 0 0 0
65 1 8.129847 6.520923 13.090904 0 0 0
66 1 6.404968 7.418460 0.061797 0 0 0
67 1 6.486158 9.288122 2.699087 0 0 0
68 1 4.788299 10.380962 5.280760 0 0 0
69 1 6.507852 9.309385 8.007418 0 0 0
70 1 4.878324 10.328649 10.533315 0 0 0
71 1 6.552670 9.279122 13.228916 0 0 0
72 1 4.965490 10.301086 0.042782 0 0 0
73 1 12.939451 1.899250 5.206287 0 0 0
74 1 0.077943 1.941663 10.701909 0 0 0
75 1 12.976084 1.865275 0.026937 0 0 0
76 1 11.455675 4.582073 5.177132 0 0 0
77 1 11.481916 4.788401 10.543139 0 0 0
78 1 11.447491 4.784013 0.049120 0 0 0
79 1 11.333565 6.541399 2.616057 0 0 0
80 1 9.789254 7.492261 5.419882 0 0 0
81 1 11.328888 6.526323 8.042594 0 0 0
82 1 9.754699 7.556162 10.439194 0 0 0
83 1 11.354479 6.466923 13.250624 0 0 0
84 1 9.795749 7.594413 0.045951 0 0 0
85 1 9.792241 9.454737 2.625248 0 0 0
86 1 8.108282 10.381524 5.379159 0 0 0
87 1 9.662466 9.268435 7.776710 0 0 0
88 1 8.026312 10.238760 10.597964 0 0 0
89 1 9.620637 9.368898 13.255536 0 0 0
90 1 8.019038 10.253273 15.773036 0 0 0
91 1 12.905545 7.460423 5.371712 0 0 0
92 1 12.938411 7.562125 10.574830 0 0 0
93 1 0.014290 7.552000 0.080811 0 0 0
94 1 11.470874 10.231222 5.369494 0 0 0
95 1 11.286019 10.206697 10.439987 0 0 0
96 1 11.271470 10.228972 0.133100 0 0 0
97 2 1.564836 1.037117 4.670875 0 0 0
98 2 1.720592 0.907606 9.825189 0 0 0
99 2 1.542622 0.947780 15.112921 0 0 0
100 2 12.940056 3.640998 4.654713 0 0 0
101 2 0.120179 3.828763 9.752776 0 0 0
102 2 0.034822 3.718399 15.068238 0 0 0
103 2 4.882091 0.918710 4.632371 0 0 0
104 2 3.347912 1.796086 1.965450 0 0 0
105 2 4.756862 0.910744 9.979206 0 0 0
106 2 3.142403 1.912638 7.203428 0 0 0
107 2 4.897030 0.859174 15.170440 0 0 0
108 2 3.120968 1.814086 12.474839 0 0 0
109 2 3.250614 3.685886 4.578180 0 0 0
110 2 1.688246 4.668137 1.845343 0 0 0
111 2 3.219047 3.744274 10.011847 0 0 0
112 2 1.572760 4.759938 7.288675 0 0 0
113 2 3.131880 3.696011 15.218768 0 0 0
114 2 1.618487 4.619761 12.466916 0 0 0
115 2 1.696560 6.588987 4.514323 0 0 0
116 2 1.679932 6.540386 9.896810 0 0 0
117 2 1.677723 6.540386 15.036705 0 0 0
118 2 12.879992 9.395561 4.609870 0 0 0
119 2 0.110841 9.283960 9.869239 0 0 0
120 2 0.011953 9.287785 15.318752 0 0 0
121 2 8.153749 1.028725 4.668340 0 0 0
122 2 6.368984 1.833774 1.863089 0 0 0
123 2 8.152710 0.838665 9.963994 0 0 0
124 2 6.489406 1.831299 7.273147 0 0 0
125 2 8.172845 1.008070 15.132252 0 0 0
126 2 6.446277 1.840187 12.602393 0 0 0
127 2 6.589043 3.808963 4.746140 0 0 0
128 2 4.967828 4.613911 2.097124 0 0 0
129 2 6.614634 3.810875 10.027692 0 0 0
130 2 4.759071 4.720562 7.212142 0 0 0
131 2 6.531755 3.835513 15.150475 0 0 0
132 2 4.940678 4.612898 12.555967 0 0 0
133 2 4.904564 6.610700 4.565662 0 0 0
134 2 3.186181 7.593738 2.022651 0 0 0
135 2 4.765696 6.591349 9.811245 0 0 0
136 2 3.319593 7.582150 7.215153 0 0 0
137 2 4.776738 6.622287 15.133045 0 0 0
138 2 3.183323 7.432635 12.413042 0 0 0
139 2 3.261136 9.353486 4.706210 0 0 0
140 2 1.620435 10.286686 1.847086 0 0 0
141 2 3.173190 9.384986 9.880489 0 0 0
142 2 1.727997 10.212772 7.250013 0 0 0
143 2 3.257499 9.292735 15.203556 0 0 0
144 2 1.716695 10.244722 12.440455 0 0 0
145 2 11.252764 0.973757 4.474393 0 0 0
146 2 9.688577 1.981601 2.070029 0 0 0
147 2 11.300049 0.978493 9.793974 0 0 0
148 2 9.776653 1.955388 7.394680 0 0 0
149 2 11.327329 0.934426 15.247448 0 0 0
150 2 9.795879 1.866175 12.506688 0 0 0
151 2 9.685849 3.654723 4.609553 0 0 0
152 2 8.032158 4.664761 2.119466 0 0 0
153 2 9.745865 3.843276 9.779396 0 0 0
154 2 8.247151 4.596811 7.208656 0 0 0
155 2 9.817053 3.773075 15.179788 0 0 0
156 2 8.066583 4.605023 12.484663 0 0 0
157 2 8.032418 6.521486 4.503390 0 0 0
158 2 6.581509 7.606225 1.896840 0 0 0
159 2 8.172585 6.458823 9.945614 0 0 0
160 2 6.539289 7.395960 7.110574 0 0 0
161 2 8.026182 6.644113 15.119576 0 0 0
162 2 6.503436 7.505086 12.571178 0 0 0
163 2 6.451863 9.355623 4.599888 0 0 0
164 2 4.997187 10.213110 1.953407 0 0 0
165 2 6.570986 9.396349 9.848482 0 0 0
166 2 4.975882 10.221097 7.210558 0 0 0
167 2 6.595798 9.410524 15.249032 0 0 0
168 2 4.864684 10.231897 12.692553 0 0 0
169 2 0.100027 1.861000 2.092371 0 0 0
170 2 12.945036 1.845249 7.361405 0 0 0
171 2 12.886449 1.976651 12.391651 0 0 0
172 2 11.313559 4.586010 1.967985 0 0 0
173 2 11.442035 4.780638 7.278376 0 0 0
174 2 11.445673 4.701662 12.629172 0 0 0
175 2 11.239124 6.557374 4.547915 0 0 0
176 2 9.692994 7.605213 1.893829 0 0 0
177 2 11.372016 6.500786 9.930085 0 0 0
178 2 9.872263 7.417223 7.411952 0 0 0
179 2 11.269002 6.492011 15.236990 0 0 0
180 2 9.646228 7.405860 12.600175 0 0 0
181 2 9.620117 9.484325 4.639501 0 0 0
182 2 8.086328 10.359136 2.127864 0 0 0
183 2 9.712350 9.418512 9.941177 0 0 0
184 2 8.190642 10.333261 7.228622 0 0 0
185 2 9.833941 9.313435 15.284684 0 0 0
186 2 8.248190 10.263398 12.616337 0 0 0
187 2 0.042869 7.480899 1.985573 0 0 0
188 2 0.116915 7.602063 7.341757 0 0 0
189 2 12.960495 7.396635 12.575932 0 0 0
190 2 11.383448 10.280048 2.106631 0 0 0
191 2 11.399037 10.340574 7.203111 0 0 0
192 2 11.256141 10.266210 12.465649 0 0 0
