LAMMPS DATA file

192 atoms
0 bonds
0 angles
0 dihedrals
0 impropers

2 atom types
0 bond types
0 angle types

0.0 12.990503 xlo xhi
0.0 11.250148 ylo yhi
0.0 15.845291 zlo zhi

Masses

1 69.723
2 14.0067

Atoms

1 1 1.503001 0.916246 2.556004 0 0 0
2 1 1.618877 1.023201 7.847697 0 0 0
3 1 1.649534 0.830913 13.089636 0 0 0
4 1 0.086754 3.681386 2.739968 0 0 0
5 1 12.948435 3.788600 7.775284 0 0 0
6 1 0.060877 3.749899 13.339358 0 0 0
7 1 4.816879 0.909732 2.513063 0 0 0
8 1 3.368437 1.859875 5.144649 0 0 0
9 1 4.927688 0.939039 7.862750 0 0 0
10 1 3.313488 1.950663 10.479917 0 0 0
11 1 4.880402 0.922917 13.090428 0 0 0
12 1 3.273737 1.973501 15.715518 0 0 0
13 1 3.351550 3.761375 2.612413 0 0 0
14 1 1.533529 4.630786 5.259527 0 0 0
15 1 3.256200 3.717386 8.003773 0 0 0
16 1 1.722930 4.740250 10.528403 0 0 0
17 1 3.274646 3.781850 13.080921 0 0 0
18 1 1.622774 4.644961 0.019014 0 0 0
19 1 1.739039 6.546124 2.487394 0 0 0
20 1 1.735401 6.658175 7.872257 0 0 0
21 1 1.561458 6.627125 13.202613 0 0 0
22 1 0.016247 9.416712 2.506250 0 0 0
23 1 0.096801 9.474762 7.789386 0 0 0
24 1 0.089866 9.467225 13.044002 0 0 0
25 1 8.125170 0.971338 2.598945 0 0 0
26 1 6.534093 1.934125 5.300250 0 0 0
27 1 8.153359 0.887603 8.024847 0 0 0
28 1 6.476285 1.904650 10.663722 0 0 0
29 1 8.059308 0.915188 13.216081 0 0 0
30 1 6.480702 1.782811 0.071304 0 0 0
31 1 6.373790 3.734262 2.488820 0 0 0
32 1 4.995108 4.692549 5.406096 0 0 0
33 1 6.464984 3.836526 7.839458 0 0 0
34 1 4.977701 4.776363 10.525868 0 0 0
35 1 6.527728 3.765312 13.323988 0 0 0
36 1 4.797133 4.575885 0.115671 0 0 0
37 1 4.802589 6.505173 2.680072 0 0 0
38 1 3.196833 7.573375 5.397857 0 0 0
39 1 4.987184 6.538024 8.012647 0 0 0
40 1 3.158511 7.528262 10.621098 0 0 0
41 1 4.763877 6.569637 13.322086 0 0 0
42 1 3.186181 7.440398 0.101410 0 0 0
43 1 3.246457 9.296897 2.550141 0 0 0
44 1 1.664863 10.326849 5.210248 0 0 0
45 1 3.279453 9.423687 7.847697 0 0 0
46 1 1.601080 10.281623 10.647243 0 0 0
47 1 3.152925 9.465537 13.132260 0 0 0
48 1 1.623683 10.376462 0.050705 0 0 0
49 1 11.275757 0.981755 2.517817 0 0 0
50 1 9.858753 1.962026 5.281077 0 0 0
51 1 11.413326 1.044790 7.798418 0 0 0
52 1 9.808350 1.948638 10.647243 0 0 0
53 1 11.286409 0.921455 13.045111 0 0 0
54 1 9.697541 1.792824 15.824058 0 0 0
55 1 9.761714 3.815713 2.610036 0 0 0
56 1 8.127508 4.783338 5.402769 0 0 0
57 1 9.754569 3.840351 7.775126 0 0 0
58 1 8.199216 4.650361 10.471994 0 0 0
59 1 9.826666 3.715924 13.092964 0 0 0
60 1 7.996434 4.789976 0.052289 0 0 0
61 1 8.212726 6.661438 2.692432 0 0 0
62 1 6.603722 7.445348 5.398490 0 0 0
63 1 8.228185 6.517548 7.781939 0 0 0
64 1 6.564751 7.406760 10.630605 0 0 0
65 1 8.105554 6.596637 13.094231 0 0 0
66 1 6.503436 7.530174 15.685887 0 0 0
67 1 6.487587 9.462050 2.513063 0 0 0
68 1 4.856500 10.348561 5.211199 0 0 0
69 1 6.612296 9.418849 7.824246 0 0 0
70 1 4.885728 10.397950 10.576415 0 0 0
71 1 6.560854 9.463962 13.307192 0 0 0
72 1 4.775569 10.242697 15.730095 0 0 0
73 1 12.868133 1.764586 5.306905 0 0 0
74 1 0.028579 1.969338 10.632032 0 0 0
75 1 12.938801 1.874050 15.763212 0 0 0
76 1 11.427226 4.601311 5.354282 0 0 0
77 1 11.447231 4.742725 10.506378 0 0 0
78 1 11.388644 4.680624 15.709021 0 0 0
79 1 11.452038 6.604400 2.561708 0 0 0
80 1 9.864858 7.428923 5.212942 0 0 0
81 1 11.343567 6.503261 7.820602 0 0 0
82 1 9.796268 7.428248 10.565164 0 0 0
83 1 11.313689 6.554224 13.333654 0 0 0
84 1 9.669091 7.387860 0.123593 0 0 0
85 1 9.789643 9.378461 2.642361 0 0 0
86 1 8.015920 10.424387 5.231640 0 0 0
87 1 9.775354 9.351123 7.761182 0 0 0
88 1 8.130886 10.314698 10.477857 0 0 0
89 1 9.624794 9.452037 13.055727 0 0 0
90 1 8.071389 10.376462 0.144192 0 0 0
91 1 0.022084 7.562687 5.348419 0 0 0
92 1 0.038972 7.537149 10.697156 0 0 0
93 1 0.009093 7.477299 0.049120 0 0 0
94 1 11.351232 10.229985 5.256992 0 0 0
95 1 11.379031 10.289048 10.525868 0 0 0
96 1 11.432033 10.317623 15.836734 0 0 0
97 2 1.516901 0.881449 4.610346 0 0 0
98 2 1.659667 0.984635 10.064929 0 0 0
99 2 1.736051 0.845764 15.334280 0 0 0
100 2 12.902895 3.855876 4.657723 0 0 0
101 2 12.923014 3.653373 9.845471 0 0 0
102 2 0.081463 3.654836 15.144453 0 0 0
103 2 4.775829 0.860603 4.488337 0 0 0
104 2 3.300107 1.782023 2.023127 0 0 0
105 2 4.786741 0.971574 9.908377 0 0 0
106 2 3.191637 1.949426 7.368852 0 0 0
107 2 4.985236 0.825086 15.235088 0 0 0
108 2 3.119669 1.786524 12.425085 0 0 0
109 2 3.213071 3.691511 4.578338 0 0 0
110 2 1.558730 4.662174 1.961172 0 0 0
111 2 3.283999 3.814700 9.835964 0 0 0
112 2 1.713188 4.741712 7.371229 0 0 0
113 2 3.165006 3.652248 15.225581 0 0 0
114 2 1.676165 4.600186 12.421599 0 0 0
115 2 1.649274 6.632862 4.726650 0 0 0
116 2 1.517161 6.614637 10.036724 0 0 0
117 2 1.611342 6.466023 15.108485 0 0 0
118 2 0.060242 9.271697 4.603057 0 0 0
119 2 0.010450 9.477237 9.816474 0 0 0
120 2 12.890825 9.408049 15.066495 0 0 0
121 2 8.244683 0.880887 4.660734 0 0 0
122 2 6.577482 1.949313 1.982721 0 0 0
123 2 8.186745 1.030907 10.035932 0 0 0
124 2 6.420946 1.885637 7.358078 0 0 0
125 2 8.039693 0.993062 15.182799 0 0 0
126 2 6.516946 1.821174 12.418113 0 0 0
127 2 6.442770 3.843951 4.617635 0 0 0
128 2 4.811552 4.746775 2.072406 0 0 0
129 2 6.370932 3.835513 10.003290 0 0 0
130 2 4.825712 4.725625 7.203428 0 0 0
131 2 6.606970 3.700961 15.085667 0 0 0
132 2 4.935092 4.682424 12.598274 0 0 0
133 2 4.992640 6.520473 4.492774 0 0 0
134 2 3.323360 7.469761 2.013144 0 0 0
135 2 4.789209 6.467373 9.799045 0 0 0
136 2 3.332584 7.455361 7.231157 0 0 0
137 2 4.910670 6.633987 15.274860 0 0 0
138 2 3.214890 7.430273 12.596055 0 0 0
139 2 3.118630 9.326260 4.670875 0 0 0
140 2 1.647715 10.273298 2.141174 0 0 0
141 2 3.149677 9.428187 9.799995 0 0 0
142 2 1.606795 10.387374 7.223551 0 0 0
143 2 3.137466 9.387911 15.118942 0 0 0
144 2 1.528203 10.357561 12.545192 0 0 0
145 2 11.284201 0.847777 4.532387 0 0 0
146 2 9.647917 1.835349 2.128973 0 0 0
147 2 11.375004 0.880740 9.888887 0 0 0
148 2 9.786785 1.885750 7.302461 0 0 0
149 2 11.461001 0.910666 15.269473 0 0 0
150 2 9.653633 1.775611 12.498924 0 0 0
151 2 9.825237 3.722449 4.776721 0 0 0
152 2 8.146474 4.651149 2.121843 0 0 0
153 2 9.846412 3.828988 9.831686 0 0 0
154 2 8.063335 4.750600 7.331774 0 0 0
155 2 9.740929 3.855313 15.182957 0 0 0
156 2 8.247671 4.685462 12.550738 0 0 0
157 2 8.188953 6.537349 4.612247 0 0 0
158 2 6.399901 7.558300 2.006806 0 0 0
159 2 8.157646 6.629600 9.820119 0 0 0
160 2 6.588264 7.591150 7.202001 0 0 0
161 2 8.177782 6.526436 15.118467 0 0 0
162 2 6.409644 7.537037 12.561037 0 0 0
163 2 6.580729 9.322773 4.524464 0 0 0
164 2 4.853512 10.307161 2.076525 0 0 0
165 2 6.399252 9.274172 9.949258 0 0 0
166 2 4.749068 10.230772 7.329556 0 0 0
167 2 6.499279 9.384649 15.288329 0 0 0
168 2 4.947693 10.313011 12.478959 0 0 0
169 2 12.891646 1.962026 2.135153 0 0 0
170 2 0.115615 1.906113 7.138145 0 0 0
171 2 12.879954 1.803624 12.401317 0 0 0
172 2 11.425148 4.607498 2.029148 0 0 0
173 2 11.442035 4.702449 7.229097 0 0 0
174 2 11.450219 4.643611 12.492427 0 0 0
175 2 11.440736 6.563449 4.551243 0 0 0
176 2 9.803283 7.424310 2.119625 0 0 0
177 2 11.294463 6.468948 9.773692 0 0 0
178 2 9.812896 7.571575 7.344134 0 0 0
179 2 11.433851 6.666388 15.179947 0 0 0
180 2 9.817443 7.482699 12.690335 0 0 0
181 2 9.613362 9.483425 4.649325 0 0 0
182 2 8.079184 10.325611 1.922668 0 0 0
183 2 9.654282 9.412324 9.967163 0 0 0
184 2 8.195059 10.278585 7.188691 0 0 0
185 2 9.702607 9.336611 15.326040 0 0 0
186 2 8.185576 10.264973 12.583379 0 0 0
187 2 0.068850 7.577987 2.113603 0 0 0
188 2 0.024682 7.403048 7.178550 0 0 0
189 2 0.096130 7.480786 12.600809 0 0 0
190 2 11.440346 10.255860 2.003320 0 0 0
191 2 11.296412 10.201747 7.352373 0 0 0
192 2 11.242501 10.288598 12.471194 0 0 0
