LAMMPS DATA file

192 atoms
0 bonds
0 angles
0 dihedrals
0 impropers

2 atom types
0 bond types
0 angle types

0.0 12.990503 xlo xhi
0.0 11.250148 ylo yhi
0.0 15.845291 zlo zhi

Masses

1 69.723
2 14.0067

Atoms

1 1 1.559120 0.995942 2.761676 0 0 0
2 1 1.551975 0.976502 8.018192 0 0 0
3 1 1.740468 1.021727 13.165218 0 0 0
4 1 0.113529 3.735837 2.528433 0 0 0
5 1 12.941094 3.790850 8.054795 0 0 0
6 1 0.116238 3.772287 13.341101 0 0 0
7 1 4.846497 0.834243 2.570106 0 0 0
8 1 3.126035 1.957076 5.254932 0 0 0
9 1 4.765696 0.856013 7.835338 0 0 0
10 1 3.175658 1.957751 10.641697 0 0 0
11 1 4.831038 0.911588 13.228916 0 0 0
12 1 3.256719 1.837599 0.106163 0 0 0
13 1 3.186700 3.847663 2.600529 0 0 0
14 1 1.671358 4.636974 5.126744 0 0 0
15 1 3.362072 3.757662 7.971449 0 0 0
16 1 1.651742 4.743963 10.710624 0 0 0
17 1 3.306733 3.830450 13.354728 0 0 0
18 1 1.691234 4.607948 15.784762 0 0 0
19 1 1.501442 6.606312 2.780848 0 0 0
20 1 1.683309 6.615875 7.814105 0 0 0
21 1 1.586270 6.579424 13.186292 0 0 0
22 1 0.086706 9.446074 2.579613 0 0 0
23 1 12.980550 9.414237 7.947364 0 0 0
24 1 12.895515 9.266972 13.080129 0 0 0
25 1 8.047227 0.926067 2.646322 0 0 0
26 1 6.622688 1.923888 5.428438 0 0 0
27 1 8.003059 0.968312 8.063035 0 0 0
28 1 6.435495 1.976201 10.685589 0 0 0
29 1 8.039693 0.990148 13.095816 0 0 0
30 1 6.392627 1.833212 15.791892 0 0 0
31 1 6.469011 3.701411 2.576444 0 0 0
32 1 4.928207 4.787613 5.145600 0 0 0
33 1 6.437963 3.771725 8.021203 0 0 0
34 1 4.944705 4.700424 10.411148 0 0 0
35 1 6.539289 3.828538 13.061273 0 0 0
36 1 4.835325 4.633149 15.818512 0 0 0
37 1 4.821036 6.667513 2.518134 0 0 0
38 1 3.174229 7.588562 5.314827 0 0 0
39 1 4.844938 6.530149 7.963685 0 0 0
40 1 3.308162 7.552225 10.703177 0 0 0
41 1 4.753485 6.545561 13.043368 0 0 0
42 1 3.300627 7.563250 0.015845 0 0 0
43 1 3.123826 9.264272 2.790356 0 0 0
44 1 1.546260 10.385349 5.232273 0 0 0
45 1 3.237623 9.287335 8.006308 0 0 0
46 1 1.611732 10.266998 10.513192 0 0 0
47 1 3.243079 9.359673 13.261874 0 0 0
48 1 1.669280 10.201634 15.706327 0 0 0
49 1 11.356428 0.999958 2.735848 0 0 0
50 1 9.777042 1.844574 5.399124 0 0 0
51 1 11.301998 0.839891 7.989196 0 0 0
52 1 9.812247 1.964613 10.642648 0 0 0
53 1 11.482825 0.945552 13.344587 0 0 0
54 1 9.867067 1.880012 0.104579 0 0 0
55 1 9.846282 3.847101 2.621920 0 0 0
56 1 8.186355 4.786263 5.374723 0 0 0
57 1 9.854726 3.738087 8.022946 0 0 0
58 1 8.245852 4.658236 10.453772 0 0 0
59 1 9.826796 3.769587 13.345221 0 0 0
60 1 8.116207 4.632136 0.050705 0 0 0
61 1 8.226756 6.588874 2.579138 0 0 0
62 1 6.492783 7.479324 5.144490 0 0 0
63 1 8.142967 6.647825 7.934054 0 0 0
64 1 6.443160 7.589462 10.651363 0 0 0
65 1 8.190772 6.584824 13.217032 0 0 0
66 1 6.443160 7.510824 0.150530 0 0 0
67 1 6.490965 9.416712 2.629051 0 0 0
68 1 4.935482 10.247760 5.196621 0 0 0
69 1 6.390808 9.422112 8.029918 0 0 0
70 1 4.946524 10.367237 10.432698 0 0 0
71 1 6.500708 9.453162 13.307826 0 0 0
72 1 4.839612 10.261373 15.721063 0 0 0
73 1 0.049364 1.887437 5.120564 0 0 0
74 1 12.968679 1.861337 10.648194 0 0 0
75 1 0.085737 1.895200 15.726451 0 0 0
76 1 11.390983 4.738450 5.253506 0 0 0
77 1 11.291605 4.634724 10.714269 0 0 0
78 1 11.361754 4.761288 0.026937 0 0 0
79 1 11.449310 6.665038 2.683083 0 0 0
80 1 9.776003 7.533099 5.137519 0 0 0
81 1 11.480487 6.652325 7.978896 0 0 0
82 1 9.693643 7.464923 10.423824 0 0 0
83 1 11.371887 6.587074 13.270906 0 0 0
84 1 9.612972 7.425773 15.828178 0 0 0
85 1 9.707024 9.476787 2.772292 0 0 0
86 1 8.238058 10.246635 5.168417 0 0 0
87 1 9.761584 9.396011 7.980164 0 0 0
88 1 8.068661 10.288711 10.506378 0 0 0
89 1 9.646488 9.282160 13.214497 0 0 0
90 1 8.071649 10.423487 0.064966 0 0 0
91 1 0.018187 7.548962 5.427329 0 0 0
92 1 12.971537 7.593063 10.684004 0 0 0
93 1 0.087036 7.398435 15.795219 0 0 0
94 1 11.313559 10.341699 5.160970 0 0 0
95 1 11.333954 10.394687 10.478966 0 0 0
96 1 11.244450 10.425062 0.028522 0 0 0
97 2 1.557302 0.923603 4.701456 0 0 0
98 2 1.638882 0.923637 9.941652 0 0 0
99 2 1.540933 1.006990 15.291656 0 0 0
100 2 12.987189 3.807388 4.596719 0 0 0
101 2 0.058635 3.672161 9.911705 0 0 0
102 2 0.043658 3.671823 15.051917 0 0 0
103 2 4.829090 0.925347 4.708745 0 0 0
104 2 3.151626 1.965401 1.897474 0 0 0
105 2 4.839872 0.920127 10.058590 0 0 0
106 2 3.163707 1.961013 7.284080 0 0 0
107 2 4.825063 1.027476 15.203873 0 0 0
108 2 3.238013 1.944363 12.505579 0 0 0
109 2 3.369996 3.762500 4.712548 0 0 0
110 2 1.670579 4.621223 2.092212 0 0 0
111 2 3.342586 3.646848 9.944980 0 0 0
112 2 1.564966 4.743062 7.264115 0 0 0
113 2 3.323620 3.755524 15.221461 0 0 0
114 2 1.551066 4.656999 12.485455 0 0 0
115 2 1.715136 6.669200 4.666280 0 0 0
116 2 1.725788 6.670775 9.955438 0 0 0
117 2 1.701496 6.541174 15.185017 0 0 0
118 2 12.877200 9.443262 4.579764 0 0 0
119 2 0.090746 9.485787 9.903782 0 0 0
120 2 12.953187 9.274847 15.321762 0 0 0
121 2 8.172326 0.923581 4.775295 0 0 0
122 2 6.553449 1.910275 1.990802 0 0 0
123 2 8.217013 0.838552 9.899821 0 0 0
124 2 6.446148 1.806324 7.157318 0 0 0
125 2 8.223378 0.840904 15.335864 0 0 0
126 2 6.547214 1.765261 12.392760 0 0 0
127 2 6.587094 3.742699 4.733781 0 0 0
128 2 4.798822 4.756450 1.906505 0 0 0
129 2 6.624767 3.848563 9.925965 0 0 0
130 2 4.978610 4.718087 7.356652 0 0 0
131 2 6.512659 3.680711 15.319227 0 0 0
132 2 4.875336 4.799876 12.510808 0 0 0
133 2 4.795055 6.614300 4.567880 0 0 0
134 2 3.148248 7.587550 2.047370 0 0 0
135 2 4.985755 6.543986 10.008836 0 0 0
136 2 3.326868 7.468636 7.399117 0 0 0
137 2 4.816489 6.487173 15.176619 0 0 0
138 2 3.180855 7.388085 12.586231 0 0 0
139 2 3.289455 9.411199 4.684185 0 0 0
140 2 1.714876 10.208497 2.043409 0 0 0
141 2 3.266072 9.417949 10.034189 0 0 0
142 2 1.563277 10.215585 7.208815 0 0 0
143 2 3.322711 9.374749 15.170598 0 0 0
144 2 1.537686 10.259685 12.607939 0 0 0
145 2 11.448920 0.983758 4.651227 0 0 0
146 2 9.871224 1.866287 1.983989 0 0 0
147 2 11.307973 0.972407 9.879380 0 0 0
148 2 9.690915 1.898800 7.360137 0 0 0
149 2 11.489061 0.999024 15.222254 0 0 0
150 2 9.729627 1.797099 12.458201 0 0 0
151 2 9.794969 3.852726 4.669924 0 0 0
152 2 8.220780 4.623698 2.044359 0 0 0
153 2 9.694813 3.643248 10.010262 0 0 0
154 2 8.101527 4.595011 7.405772 0 0 0
155 2 9.714558 3.769812 15.108168 0 0 0
156 2 8.158945 4.657561 12.543766 0 0 0
157 2 8.093473 6.525198 4.553303 0 0 0
158 2 6.564881 7.441636 2.132301 0 0 0
159 2 8.229094 6.511811 9.821070 0 0 0
160 2 6.430819 7.443211 7.185364 0 0 0
161 2 8.100488 6.635900 15.227641 0 0 0
162 2 6.415750 7.569437 12.703645 0 0 0
163 2 6.403928 9.454512 4.544112 0 0 0
164 2 4.849874 10.272623 1.965291 0 0 0
165 2 6.450434 9.284860 9.963043 0 0 0
166 2 4.754394 10.245397 7.267601 0 0 0
167 2 6.436924 9.357086 15.221303 0 0 0
168 2 4.754264 10.399637 12.663239 0 0 0
169 2 12.882682 1.802499 1.831874 0 0 0
170 2 0.023383 1.921750 7.349996 0 0 0
171 2 12.916198 1.979914 12.544717 0 0 0
172 2 11.253023 4.615261 1.934868 0 0 0
173 2 11.465548 4.584660 7.222125 0 0 0
174 2 11.403194 4.761288 12.405436 0 0 0
175 2 11.442295 6.461635 4.562493 0 0 0
176 2 9.683641 7.593175 2.019641 0 0 0
177 2 11.367210 6.615875 9.785893 0 0 0
178 2 9.842774 7.506774 7.111208 0 0 0
179 2 11.279134 6.509111 15.044470 0 0 0
180 2 9.790163 7.393935 12.549629 0 0 0
181 2 9.737811 9.325248 4.655663 0 0 0
182 2 8.063855 10.407175 1.829656 0 0 0
183 2 9.759635 9.345611 9.867972 0 0 0
184 2 7.994615 10.354749 7.285189 0 0 0
185 2 9.811857 9.440674 15.110228 0 0 0
186 2 8.041121 10.282748 12.619189 0 0 0
187 2 12.893204 7.484274 1.832825 0 0 0
188 2 12.879045 7.547387 7.363940 0 0 0
189 2 0.106522 7.592838 12.590668 0 0 0
190 2 11.270950 10.214122 2.074149 0 0 0
191 2 11.429564 10.341024 7.340489 0 0 0
192 2 11.289527 10.379049 12.700000 0 0 0
