LAMMPS DATA file

64 atoms

1 atom types

0.000000 10.862000 xlo xhi
0.000000 10.862000 ylo yhi
0.000000 10.862000 zlo zhi

Masses

1 28.0855

Atoms

1 1 6.753930 1.367480 1.340880
2 1 9.556030 4.054890 1.294890
3 1 9.493110 1.331660 4.041460
4 1 1.364300 1.372960 1.402440
5 1 4.082220 4.098830 1.388890
6 1 6.827590 6.879780 1.352260
7 1 9.518580 9.553330 1.382900
8 1 4.057870 1.341030 4.105780
9 1 6.768550 4.106420 4.018410
10 1 9.529570 6.794660 4.039470
11 1 6.787190 1.421370 6.807250
12 1 9.440190 4.079340 6.796490
13 1 9.504950 1.298680 9.487730
14 1 1.329360 6.794460 1.364780
15 1 4.050090 9.508970 1.353790
16 1 1.373610 4.061310 4.088830
17 1 4.081410 6.805270 4.063360
18 1 6.786350 9.483920 4.094660
19 1 1.369800 1.354520 6.784300
20 1 4.052470 4.026460 6.768410
21 1 6.787480 6.767300 6.760300
22 1 9.490570 9.502080 6.763610
23 1 4.075060 1.333960 9.475380
24 1 6.806260 4.034740 9.512010
25 1 9.525000 6.784120 9.485660
26 1 1.368660 9.489060 4.109640
27 1 1.332960 6.780190 6.761960
28 1 4.035210 9.475560 6.778620
29 1 1.419780 4.058470 9.564060
30 1 4.089150 6.784230 9.540450
31 1 6.807450 9.510180 9.531830
32 1 1.356530 9.505260 9.477650
33 1 5.391140 0.028705 -0.025853
34 1 8.120040 2.674430 -0.015782
35 1 8.107510 0.008074 2.718000
36 1 -0.012682 0.007061 0.032765
37 1 2.783650 2.695060 0.031678
38 1 5.494860 5.445170 0.006036
39 1 8.214610 8.142460 0.007522
40 1 2.715420 -0.003048 2.707690
41 1 5.395150 2.718570 2.706300
42 1 8.193930 5.441230 2.635300
43 1 5.466640 -0.010438 5.479930
44 1 8.085320 2.774130 5.427840
45 1 8.123280 -0.006973 8.140440
46 1 -0.016330 5.451620 -0.038237
47 1 2.677330 8.152140 -0.028136
48 1 -0.011542 2.712150 2.730430
49 1 2.698640 5.473890 2.729660
50 1 5.435580 8.158850 2.740110
51 1 -0.014331 0.006063 5.435810
52 1 2.680290 2.742970 5.431620
53 1 5.432910 5.402410 5.408410
54 1 8.175570 8.142530 5.454820
55 1 2.718330 0.004831 8.113230
56 1 5.402560 2.765780 8.140590
57 1 8.103630 5.443320 8.239020
58 1 0.030135 8.112770 2.739660
59 1 -0.004326 5.395550 5.425840
60 1 2.740010 8.122230 5.441770
61 1 -0.020253 2.736970 8.164800
62 1 2.701370 5.385390 8.122660
63 1 5.492060 8.118410 8.152670
64 1 0.014234 8.133180 8.141260
