LAMMPS DATA file

64 atoms

1 atom types

0.000000 10.862000 xlo xhi
0.000000 10.862000 ylo yhi
0.000000 10.862000 zlo zhi

Masses

1 28.0855

Atoms

1 1 6.832200 1.404550 1.369140
2 1 9.482240 4.117900 1.393030
3 1 9.499220 1.373130 4.069440
4 1 1.358050 1.381820 1.359630
5 1 4.042670 4.050770 1.312560
6 1 6.830230 6.771700 1.331170
7 1 9.518660 9.514760 1.331150
8 1 4.037590 1.373770 4.085520
9 1 6.792470 4.075070 4.113120
10 1 9.494130 6.812170 4.059020
11 1 6.736380 1.344090 6.781020
12 1 9.512680 4.039820 6.747760
13 1 9.494380 1.412880 9.526760
14 1 1.408980 6.783620 1.361510
15 1 4.110820 9.536800 1.380930
16 1 1.364250 4.065080 4.030340
17 1 4.086930 6.778260 4.083010
18 1 6.766570 9.547010 4.060650
19 1 1.322980 1.306800 6.805730
20 1 4.066350 4.065450 6.781470
21 1 6.800700 6.794470 6.772030
22 1 9.489500 9.453130 6.789840
23 1 4.054620 1.342690 9.560010
24 1 6.797650 4.087650 9.474880
25 1 9.523780 6.779090 9.495010
26 1 1.323320 9.533470 4.089140
27 1 1.383910 6.762600 6.812890
28 1 4.042300 9.496900 6.820590
29 1 1.333410 4.070140 9.458410
30 1 4.101260 6.823960 9.487830
31 1 6.776520 9.488740 9.515110
32 1 1.398250 9.432170 9.563500
33 1 5.458420 0.011112 0.027332
34 1 8.128850 2.782680 0.020071
35 1 8.184990 0.027010 2.722530
36 1 0.008922 0.020233 -0.029712
37 1 2.658960 2.733450 -0.018511
38 1 5.407800 5.434290 -0.014441
39 1 8.160100 8.169680 -0.006192
40 1 2.730310 -0.003430 2.704150
41 1 5.398400 2.718190 2.714440
42 1 8.119720 5.452040 2.735170
43 1 5.411870 -0.008718 5.420250
44 1 8.144370 2.672760 5.464090
45 1 8.148300 -0.012590 8.141170
46 1 0.036742 5.422530 -0.001625
47 1 2.812500 8.141390 0.021812
48 1 -0.037191 2.730080 2.698110
49 1 2.768610 5.417820 2.704600
50 1 5.472070 8.102520 2.709920
51 1 -0.079045 -0.012917 5.444050
52 1 2.660880 2.732420 5.432220
53 1 5.433130 5.467100 5.409240
54 1 8.084650 8.176970 5.401450
55 1 2.667570 -0.011439 8.224140
56 1 5.435260 2.700710 8.156460
57 1 8.188020 5.400290 8.109720
58 1 0.035346 8.140530 2.697420
59 1 0.021793 5.407770 5.417520
60 1 2.672400 8.139610 5.451230
61 1 -0.006250 2.676160 8.113160
62 1 2.720500 5.426660 8.164390
63 1 5.445870 8.144420 8.131300
64 1 0.059111 8.116250 8.148360
