LAMMPS DATA file

64 atoms

1 atom types

0.000000 10.862000 xlo xhi
0.000000 10.862000 ylo yhi
0.000000 10.862000 zlo zhi

Masses

1 28.0855

Atoms

1 1 6.764180 1.339140 1.368880
2 1 9.451510 4.083070 1.344390
3 1 9.526820 1.371540 4.061490
4 1 1.367490 1.345730 1.375980
5 1 4.027900 4.042330 1.357710
6 1 6.817060 6.771350 1.335710
7 1 9.551180 9.486460 1.351730
8 1 4.099930 1.334810 4.101990
9 1 6.808020 4.054060 4.052390
10 1 9.516430 6.765510 4.092010
11 1 6.782560 1.399790 6.828480
12 1 9.507990 4.118550 6.856680
13 1 9.482680 1.351880 9.507810
14 1 1.293920 6.773690 1.368120
15 1 4.079610 9.472810 1.326270
16 1 1.371420 4.087720 4.038150
17 1 4.049850 6.785260 4.115040
18 1 6.768400 9.496240 4.043650
19 1 1.421760 1.394500 6.737920
20 1 4.122310 4.105520 6.759050
21 1 6.816790 6.737540 6.812110
22 1 9.494230 9.461070 6.789320
23 1 4.107340 1.385120 9.441640
24 1 6.755240 4.064310 9.549360
25 1 9.501690 6.817350 9.510950
26 1 1.365510 9.517700 4.060800
27 1 1.341420 6.780210 6.798090
28 1 4.047480 9.553960 6.788320
29 1 1.339540 4.080230 9.529920
30 1 4.086760 6.785050 9.472050
31 1 6.790890 9.497920 9.507030
32 1 1.335960 9.537840 9.509890
33 1 5.443980 0.004937 -0.012731
34 1 8.138170 2.701190 0.015406
35 1 8.151650 -0.035039 2.692930
36 1 0.014734 0.016461 -0.030457
37 1 2.712070 2.721380 -0.011690
38 1 5.390220 5.412080 0.021363
39 1 8.143220 8.188760 0.003097
40 1 2.754490 -0.024558 2.741770
41 1 5.442190 2.688930 2.704810
42 1 8.151320 5.436800 2.723540
43 1 5.432470 0.019999 5.437680
44 1 8.185280 2.730090 5.441770
45 1 8.155710 0.001847 8.136080
46 1 -0.049291 5.431150 -0.009546
47 1 2.648320 8.144220 0.068591
48 1 0.038249 2.715120 2.715790
49 1 2.725860 5.452650 2.711930
50 1 5.392650 8.098360 2.692550
51 1 -0.005447 0.003710 5.434480
52 1 2.739620 2.749180 5.420360
53 1 5.417860 5.425650 5.408110
54 1 8.130640 8.165540 5.410780
55 1 2.716670 0.014801 8.150380
56 1 5.437690 2.708770 8.162490
57 1 8.149620 5.423090 8.198020
58 1 -0.001238 8.150410 2.727500
59 1 0.008976 5.425920 5.425270
60 1 2.669160 8.158200 5.424480
61 1 0.034179 2.687610 8.149790
62 1 2.752060 5.439950 8.145780
63 1 5.436430 8.142140 8.113740
64 1 -0.015378 8.138400 8.129000
