LAMMPS DATA file

64 atoms

1 atom types

0.000000 10.862000 xlo xhi
0.000000 10.862000 ylo yhi
0.000000 10.862000 zlo zhi

Masses

1 28.0855

Atoms

1 1 6.768010 1.381650 1.344240
2 1 9.517680 4.051110 1.335970
3 1 9.477890 1.344430 4.058480
4 1 1.365600 1.374870 1.363580
5 1 4.094920 4.120870 1.360390
6 1 6.809760 6.826290 1.365510
7 1 9.491500 9.521820 1.368300
8 1 4.079590 1.354560 4.079090
9 1 6.792830 4.099920 4.045770
10 1 9.529790 6.772730 4.053690
11 1 6.776210 1.388840 6.791400
12 1 9.466540 4.076620 6.779550
13 1 9.528110 1.323860 9.503830
14 1 1.340040 6.805530 1.360750
15 1 4.029360 9.520160 1.364150
16 1 1.349190 4.080170 4.105990
17 1 4.082310 6.769100 4.042730
18 1 6.783230 9.499670 4.129890
19 1 1.341000 1.379270 6.818000
20 1 4.037330 4.039180 6.794360
21 1 6.779830 6.793170 6.781770
22 1 9.499590 9.521600 6.797510
23 1 4.062100 1.355110 9.496930
24 1 6.792290 4.056110 9.515770
25 1 9.495460 6.784670 9.483670
26 1 1.389810 9.477960 4.078580
27 1 1.351110 6.787680 6.776310
28 1 4.092270 9.474040 6.766200
29 1 1.397240 4.059040 9.517610
30 1 4.083150 6.770740 9.532340
31 1 6.813280 9.498110 9.522570
32 1 1.350140 9.505100 9.489090
33 1 5.411390 -0.005115 -0.019644
34 1 8.139190 2.665330 -0.000865
35 1 8.114520 0.015324 2.701030
36 1 -0.023580 -0.001823 0.032383
37 1 2.767180 2.723690 0.037096
38 1 5.453480 5.454300 0.014347
39 1 8.188410 8.176670 0.003285
40 1 2.719560 -0.010183 2.724320
41 1 5.414410 2.709950 2.729430
42 1 8.183720 5.428980 2.671060
43 1 5.435270 -0.002543 5.446430
44 1 8.109880 2.761460 5.425010
45 1 8.141620 -0.017853 8.152820
46 1 0.032081 5.436310 -0.024364
47 1 2.699800 8.143490 -0.040699
48 1 -0.015419 2.721630 2.706240
49 1 2.685520 5.464560 2.709540
50 1 5.429780 8.158920 2.730920
51 1 0.028070 -0.014738 5.416610
52 1 2.711810 2.701140 5.422400
53 1 5.440990 5.412180 5.408030
54 1 8.174290 8.114600 5.446240
55 1 2.717690 0.018104 8.107870
56 1 5.423250 2.736730 8.130350
57 1 8.120720 5.440890 8.166050
58 1 0.027955 8.133930 2.729300
59 1 -0.034212 5.421410 5.432550
60 1 2.722350 8.146870 5.435730
61 1 -0.002343 2.718900 8.165780
62 1 2.694940 5.385250 8.146130
63 1 5.453580 8.131720 8.167560
64 1 0.002928 8.151960 8.139000
