LAMMPS DATA file

64 atoms

1 atom types

0.000000 10.862000 xlo xhi
0.000000 10.862000 ylo yhi
0.000000 10.862000 zlo zhi

Masses

1 28.0855

Atoms

1 1 6.840380 1.411870 1.383620
2 1 9.532950 4.101840 1.404480
3 1 9.510290 1.321650 4.085210
4 1 1.289850 1.385800 1.354400
5 1 4.073570 4.093770 1.316370
6 1 6.732370 6.781380 1.376430
7 1 9.480610 9.500190 1.334200
8 1 4.042620 1.336050 4.088480
9 1 6.773890 4.053910 4.100590
10 1 9.485570 6.818760 4.108530
11 1 6.786460 1.324400 6.778740
12 1 9.502040 4.060290 6.734100
13 1 9.504180 1.363600 9.464190
14 1 1.437260 6.762390 1.355380
15 1 4.126820 9.497530 1.380180
16 1 1.369470 4.067660 4.043790
17 1 4.095210 6.805110 4.085960
18 1 6.788930 9.537540 4.018790
19 1 1.339150 1.303800 6.820180
20 1 4.036430 4.064870 6.828300
21 1 6.792350 6.809170 6.761730
22 1 9.527050 9.491580 6.828430
23 1 4.077800 1.332410 9.505330
24 1 6.805470 4.060230 9.457110
25 1 9.526640 6.786160 9.446980
26 1 1.354410 9.535500 4.043450
27 1 1.346120 6.781310 6.763370
28 1 4.048420 9.515900 6.771810
29 1 1.357520 4.072700 9.521680
30 1 4.090070 6.798450 9.501150
31 1 6.762760 9.514950 9.553500
32 1 1.360360 9.482230 9.556840
33 1 5.466120 0.055079 0.040100
34 1 8.184890 2.784200 0.008830
35 1 8.148190 0.012084 2.709900
36 1 -0.017750 -0.012261 -0.014410
37 1 2.686650 2.706750 -0.027560
38 1 5.447060 5.409960 -0.065527
39 1 8.141160 8.090690 -0.008016
40 1 2.697270 0.008819 2.673100
41 1 5.430270 2.732940 2.721860
42 1 8.127910 5.415520 2.755990
43 1 5.411000 -0.001054 5.423940
44 1 8.149140 2.689300 5.394560
45 1 8.113080 -0.032595 8.175230
46 1 -0.007058 5.434760 0.001233
47 1 2.753470 8.155210 0.040468
48 1 -0.037824 2.720520 2.756310
49 1 2.772190 5.435680 2.721620
50 1 5.434350 8.164990 2.726600
51 1 -0.002604 -0.000624 5.448090
52 1 2.666290 2.684040 5.456720
53 1 5.414710 5.412590 5.494810
54 1 8.158940 8.194550 5.452860
55 1 2.726600 -0.025856 8.175210
56 1 5.391070 2.682850 8.147200
57 1 8.153770 5.463500 8.090410
58 1 0.018418 8.131750 2.681690
59 1 -0.013478 5.424620 5.403230
60 1 2.724380 8.152320 5.403130
61 1 -0.002167 2.738620 8.131550
62 1 2.729900 5.447280 8.151770
63 1 5.447260 8.147420 8.122310
64 1 0.025757 8.139360 8.169510
