LAMMPS DATA file

64 atoms

1 atom types

0.000000 10.862000 xlo xhi
0.000000 10.862000 ylo yhi
0.000000 10.862000 zlo zhi

Masses

1 28.0855

Atoms

1 1 6.805560 1.409590 1.378750
2 1 9.484180 4.130630 1.371420
3 1 9.490590 1.375440 4.106850
4 1 1.318100 1.378740 1.331790
5 1 4.082370 4.050110 1.310080
6 1 6.771700 6.745110 1.344610
7 1 9.497460 9.496120 1.360350
8 1 4.044270 1.386690 4.043760
9 1 6.771050 4.045340 4.117710
10 1 9.489570 6.804060 4.078080
11 1 6.805340 1.320280 6.795010
12 1 9.522470 4.026980 6.752970
13 1 9.472830 1.396500 9.499940
14 1 1.436700 6.800180 1.329470
15 1 4.120170 9.501940 1.376400
16 1 1.349870 4.073220 4.063110
17 1 4.094260 6.797280 4.072800
18 1 6.817710 9.514570 4.066120
19 1 1.316610 1.350960 6.812670
20 1 4.042140 4.093690 6.789860
21 1 6.788020 6.827050 6.791400
22 1 9.483450 9.500790 6.814980
23 1 4.050200 1.369330 9.561760
24 1 6.802430 4.111320 9.474060
25 1 9.520720 6.747090 9.524950
26 1 1.345030 9.500950 4.078170
27 1 1.383650 6.770370 6.787360
28 1 4.067990 9.491590 6.818170
29 1 1.322800 4.072200 9.461110
30 1 4.089720 6.781190 9.474340
31 1 6.785050 9.492060 9.505100
32 1 1.398980 9.473750 9.560970
33 1 5.474350 0.011485 0.055577
34 1 8.193760 2.777080 -0.004389
35 1 8.168670 0.007682 2.701390
36 1 0.017795 0.000732 -0.006788
37 1 2.670990 2.721030 0.002361
38 1 5.443860 5.435280 -0.040197
39 1 8.124590 8.112450 -0.015112
40 1 2.668390 0.042560 2.703740
41 1 5.437710 2.734710 2.725830
42 1 8.114350 5.443450 2.760660
43 1 5.371500 -0.014980 5.399320
44 1 8.126620 2.663010 5.418620
45 1 8.142920 0.014256 8.153750
46 1 0.040591 5.439040 0.019189
47 1 2.799130 8.149680 0.032324
48 1 0.016694 2.707490 2.714940
49 1 2.735560 5.385320 2.707220
50 1 5.465020 8.156850 2.710420
51 1 -0.019775 -0.021388 5.429510
52 1 2.679210 2.677050 5.457840
53 1 5.418730 5.419310 5.465260
54 1 8.126610 8.179890 5.392870
55 1 2.710190 -0.063542 8.192040
56 1 5.425130 2.668670 8.156320
57 1 8.178510 5.418400 8.051410
58 1 -0.013924 8.161270 2.683060
59 1 0.013711 5.449180 5.394510
60 1 2.706280 8.154820 5.421060
61 1 -0.011335 2.719310 8.125340
62 1 2.712890 5.460010 8.168280
63 1 5.399530 8.168040 8.150300
64 1 0.026764 8.122730 8.155240
