LAMMPS DATA file

64 atoms

1 atom types

0.000000 10.862000 xlo xhi
0.000000 10.862000 ylo yhi
0.000000 10.862000 zlo zhi

Masses

1 28.0855

Atoms

1 1 6.808200 1.341140 1.384860
2 1 9.520640 4.055570 1.401600
3 1 9.527280 1.339720 4.074340
4 1 1.359770 1.348000 1.338850
5 1 4.088460 4.066660 1.352800
6 1 6.714590 6.760490 1.384600
7 1 9.490300 9.487250 1.332380
8 1 4.104110 1.361120 4.054210
9 1 6.806020 4.034200 4.073540
10 1 9.491010 6.792630 4.115720
11 1 6.833330 1.335410 6.778670
12 1 9.533230 4.094640 6.774190
13 1 9.549910 1.348280 9.455930
14 1 1.316380 6.784320 1.369370
15 1 4.054320 9.483050 1.365020
16 1 1.362750 4.063270 4.098510
17 1 4.064070 6.791830 4.087920
18 1 6.783230 9.500240 4.026850
19 1 1.383040 1.366350 6.795240
20 1 4.058670 4.108690 6.819320
21 1 6.784300 6.811150 6.801210
22 1 9.489770 9.546280 6.778990
23 1 4.082400 1.335230 9.488200
24 1 6.774360 4.073100 9.538980
25 1 9.487920 6.793650 9.493710
26 1 1.352310 9.519510 4.044080
27 1 1.374200 6.802920 6.779820
28 1 4.076210 9.500430 6.766460
29 1 1.348910 4.098340 9.533470
30 1 4.058260 6.805780 9.518090
31 1 6.767660 9.527650 9.471970
32 1 1.346320 9.530720 9.513930
33 1 5.429120 -0.013369 -0.025447
34 1 8.125990 2.698070 0.015185
35 1 8.156360 -0.016212 2.726450
36 1 -0.022482 0.010643 -0.011844
37 1 2.672220 2.716030 -0.008265
38 1 5.365010 5.425720 -0.015624
39 1 8.105150 8.146850 0.019057
40 1 2.730950 -0.020079 2.683870
41 1 5.464930 2.698700 2.717410
42 1 8.123830 5.408550 2.756430
43 1 5.461840 0.001779 5.429000
44 1 8.199190 2.739910 5.433390
45 1 8.158490 -0.017969 8.162230
46 1 -0.031130 5.418850 -0.005238
47 1 2.684690 8.136070 -0.018900
48 1 0.016183 2.704940 2.711580
49 1 2.711610 5.428130 2.704720
50 1 5.432270 8.129070 2.694750
51 1 0.032055 0.017525 5.429540
52 1 2.764450 2.746810 5.401740
53 1 5.453880 5.435320 5.440090
54 1 8.157000 8.137050 5.446420
55 1 2.749950 0.030596 8.108340
56 1 5.450960 2.732020 8.119640
57 1 8.163470 5.438880 8.172470
58 1 -0.008892 8.118540 2.732370
59 1 -0.025151 5.433390 5.447720
60 1 2.709910 8.194010 5.456380
61 1 0.016805 2.702960 8.162920
62 1 2.734080 5.449700 8.154120
63 1 5.387870 8.142680 8.130260
64 1 -0.026531 8.153210 8.152460
