LAMMPS DATA file

192 atoms
0 bonds
0 angles
0 dihedrals
0 impropers

2 atom types
0 bond types
0 angle types

0.0 12.990503 xlo xhi
0.0 11.250148 ylo yhi
0.0 15.845291 zlo zhi

Masses

1 69.723
2 14.0067

Atoms

1 1 1.753458 0.990081 2.624772 0 0 0
2 1 1.654081 0.854055 8.042911 0 0 0
3 1 1.537166 0.875048 13.239533 0 0 0
4 1 12.989006 3.741237 2.509736 0 0 0
5 1 12.883484 3.841701 7.885092 0 0 0
6 1 12.866953 3.742587 13.312421 0 0 0
7 1 4.965880 0.938735 2.631586 0 0 0
8 1 3.179296 1.980926 5.164139 0 0 0
9 1 4.773101 0.894612 8.037524 0 0 0
10 1 3.190468 1.897788 10.484987 0 0 0
11 1 4.978870 0.961224 13.091854 0 0 0
12 1 3.356746 1.786524 15.726768 0 0 0
13 1 3.283869 3.697136 2.480105 0 0 0
14 1 1.715396 4.644399 5.405779 0 0 0
15 1 3.236844 3.711536 8.072859 0 0 0
16 1 1.705263 4.641474 10.677191 0 0 0
17 1 3.200081 3.853513 13.334763 0 0 0
18 1 1.622774 4.685687 0.150530 0 0 0
19 1 1.596533 6.663238 2.505933 0 0 0
20 1 1.593415 6.614412 7.995217 0 0 0
21 1 1.538985 6.531499 13.249990 0 0 0
22 1 0.033197 9.425712 2.690055 0 0 0
23 1 12.871744 9.330085 7.913138 0 0 0
24 1 12.949956 9.279572 13.146996 0 0 0
25 1 8.020986 0.857126 2.596251 0 0 0
26 1 6.562413 1.957076 5.389300 0 0 0
27 1 8.023714 1.019241 7.947047 0 0 0
28 1 6.518764 1.969113 10.417328 0 0 0
29 1 8.172196 0.937059 13.156345 0 0 0
30 1 6.624637 1.977439 15.844023 0 0 0
31 1 6.539549 3.637960 2.633170 0 0 0
32 1 4.879623 4.643836 5.390251 0 0 0
33 1 6.382494 3.757775 7.760706 0 0 0
34 1 4.913528 4.696262 10.540763 0 0 0
35 1 6.569038 3.673623 13.089478 0 0 0
36 1 4.952629 4.795038 15.771768 0 0 0
37 1 4.912359 6.631625 2.736799 0 0 0
38 1 3.196963 7.404285 5.313560 0 0 0
39 1 4.776868 6.632187 8.068580 0 0 0
40 1 3.351680 7.428698 10.691768 0 0 0
41 1 4.776998 6.459835 13.253635 0 0 0
42 1 3.150847 7.436910 0.044367 0 0 0
43 1 3.201510 9.375649 2.646322 0 0 0
44 1 1.613161 10.316836 5.299141 0 0 0
45 1 3.217488 9.455187 7.871465 0 0 0
46 1 1.716955 10.294673 10.472628 0 0 0
47 1 3.305693 9.283622 13.089002 0 0 0
48 1 1.729036 10.329211 0.052289 0 0 0
49 1 11.257180 0.904231 2.588962 0 0 0
50 1 9.642851 1.873375 5.255091 0 0 0
51 1 11.297191 0.869873 7.840250 0 0 0
52 1 9.637395 1.823199 10.461853 0 0 0
53 1 11.345256 0.829057 13.101362 0 0 0
54 1 9.681952 1.896775 15.718211 0 0 0
55 1 9.652983 3.732237 2.490880 0 0 0
56 1 8.113219 4.789076 5.400392 0 0 0
57 1 9.849659 3.685886 7.956871 0 0 0
58 1 7.993057 4.751500 10.402275 0 0 0
59 1 9.810688 3.712099 13.073632 0 0 0
60 1 8.225327 4.748800 15.720747 0 0 0
61 1 8.238447 6.526548 2.669773 0 0 0
62 1 6.514867 7.609488 5.430498 0 0 0
63 1 8.108542 6.534761 7.768788 0 0 0
64 1 6.552150 7.444223 10.528562 0 0 0
65 1 8.203763 6.577624 13.223053 0 0 0
66 1 6.444329 7.452773 15.767332 0 0 0
67 1 6.549682 9.316698 2.654403 0 0 0
68 1 4.826232 10.262723 5.202009 0 0 0
69 1 6.495901 9.390386 7.798735 0 0 0
70 1 4.754264 10.383099 10.463438 0 0 0
71 1 6.552150 9.416712 13.092488 0 0 0
72 1 4.961593 10.307273 0.060212 0 0 0
73 1 12.937762 1.813524 5.403878 0 0 0
74 1 0.031177 1.814761 10.589725 0 0 0
75 1 12.895543 1.774598 15.746574 0 0 0
76 1 11.296412 4.719212 5.187431 0 0 0
77 1 11.410598 4.723825 10.495762 0 0 0
78 1 11.384098 4.722137 0.047536 0 0 0
79 1 11.367600 6.457135 2.718893 0 0 0
80 1 9.817443 7.573037 5.239087 0 0 0
81 1 11.328628 6.524411 7.981273 0 0 0
82 1 9.712739 7.394610 10.544249 0 0 0
83 1 11.309402 6.525761 13.056995 0 0 0
84 1 9.753270 7.473361 0.152115 0 0 0
85 1 9.750542 9.462050 2.735373 0 0 0
86 1 8.073468 10.260023 5.205812 0 0 0
87 1 9.808999 9.482862 7.962259 0 0 0
88 1 8.210518 10.392549 10.576731 0 0 0
89 1 9.678704 9.347411 13.213229 0 0 0
90 1 8.000851 10.275435 0.090318 0 0 0
91 1 12.988814 7.445798 5.208030 0 0 0
92 1 0.081840 7.520612 10.524442 0 0 0
93 1 12.889437 7.611850 15.683035 0 0 0
94 1 11.302128 10.350924 5.314669 0 0 0
95 1 11.346425 10.341924 10.412099 0 0 0
96 1 11.352661 10.273973 0.088734 0 0 0
97 2 1.716175 1.032764 4.562335 0 0 0
98 2 1.728386 0.846439 9.875577 0 0 0
99 2 1.670059 0.859534 15.052709 0 0 0
100 2 12.888237 3.659223 4.594025 0 0 0
101 2 0.126053 3.765537 9.839767 0 0 0
102 2 0.043812 3.776900 15.322238 0 0 0
103 2 4.795444 0.836482 4.691315 0 0 0
104 2 3.159160 1.913538 1.849304 0 0 0
105 2 4.749328 1.014381 9.989188 0 0 0
106 2 3.143182 1.809474 7.137036 0 0 0
107 2 4.966399 0.830542 15.111812 0 0 0
108 2 3.277634 1.867862 12.625211 0 0 0
109 2 3.168384 3.760925 4.614149 0 0 0
110 2 1.746313 4.647999 1.891928 0 0 0
111 2 3.265163 3.746299 9.842936 0 0 0
112 2 1.599131 4.688162 7.359662 0 0 0
113 2 3.142013 3.682849 15.039874 0 0 0
114 2 1.670968 4.740475 12.438553 0 0 0
115 2 1.574449 6.524748 4.527633 0 0 0
116 2 1.672527 6.577174 9.922796 0 0 0
117 2 1.736441 6.457135 15.242060 0 0 0
118 2 0.071495 9.408386 4.780683 0 0 0
119 2 0.118223 9.431562 9.780981 0 0 0
120 2 12.982469 9.286097 15.149999 0 0 0
121 2 8.007346 1.030154 4.658674 0 0 0
122 2 6.620350 1.967876 1.986207 0 0 0
123 2 8.001500 0.981182 9.773851 0 0 0
124 2 6.503695 1.904538 7.377726 0 0 0
125 2 8.151151 0.842051 15.127024 0 0 0
126 2 6.594759 1.927600 12.578467 0 0 0
127 2 6.528507 3.808513 4.546965 0 0 0
128 2 4.798952 4.638436 2.074149 0 0 0
129 2 6.473947 3.661923 9.881599 0 0 0
130 2 4.978480 4.701887 7.361247 0 0 0
131 2 6.445498 3.659111 15.057146 0 0 0
132 2 4.886768 4.655874 12.646443 0 0 0
133 2 4.753615 6.591349 4.575961 0 0 0
134 2 3.119410 7.594750 1.888283 0 0 0
135 2 4.896380 6.630837 9.822337 0 0 0
136 2 3.341807 7.588787 7.191702 0 0 0
137 2 4.950161 6.527561 15.077428 0 0 0
138 2 3.321022 7.585862 12.654366 0 0 0
139 2 3.217358 9.307023 4.630945 0 0 0
140 2 1.566135 10.223347 1.887808 0 0 0
141 2 3.151366 9.316810 9.928818 0 0 0
142 2 1.683180 10.370387 7.156050 0 0 0
143 2 3.149158 9.300048 15.171073 0 0 0
144 2 1.571071 10.322236 12.684155 0 0 0
145 2 11.302387 0.959919 4.545063 0 0 0
146 2 9.701048 1.911963 1.845659 0 0 0
147 2 11.493737 1.028410 10.002023 0 0 0
148 2 9.635056 1.971363 7.285665 0 0 0
149 2 11.312650 0.827831 15.164735 0 0 0
150 2 9.872653 1.914100 12.565474 0 0 0
151 2 9.813546 3.709511 4.687037 0 0 0
152 2 8.083990 4.591523 2.118515 0 0 0
153 2 9.639733 3.805925 9.998854 0 0 0
154 2 8.080872 4.579823 7.114694 0 0 0
155 2 9.701048 3.799625 15.317801 0 0 0
156 2 8.112180 4.587585 12.520473 0 0 0
157 2 8.076456 6.518561 4.562493 0 0 0
158 2 6.617752 7.517012 1.902861 0 0 0
159 2 8.225976 6.458598 9.926916 0 0 0
160 2 6.540588 7.597450 7.422726 0 0 0
161 2 8.033977 6.450722 15.071090 0 0 0
162 2 6.408085 7.516224 12.571020 0 0 0
163 2 6.562153 9.287447 4.701615 0 0 0
164 2 4.880012 10.304573 2.015996 0 0 0
165 2 6.620740 9.344823 9.837707 0 0 0
166 2 4.826751 10.399862 7.355225 0 0 0
167 2 6.425493 9.409061 15.042251 0 0 0
168 2 4.994848 10.225935 12.436335 0 0 0
169 2 0.057158 1.836249 2.042458 0 0 0
170 2 12.886969 1.888450 7.148286 0 0 0
171 2 12.925811 1.890812 12.394028 0 0 0
172 2 11.358506 4.641249 1.909833 0 0 0
173 2 11.371757 4.687824 7.129905 0 0 0
174 2 11.362793 4.759375 12.600334 0 0 0
175 2 11.287188 6.665825 4.770859 0 0 0
176 2 9.848620 7.473361 2.031049 0 0 0
177 2 11.449959 6.543874 9.977779 0 0 0
178 2 9.829264 7.538162 7.285982 0 0 0
179 2 11.486203 6.651425 15.072040 0 0 0
180 2 9.730666 7.455811 12.431423 0 0 0
181 2 9.696242 9.345723 4.740119 0 0 0
182 2 8.036185 10.222447 1.833300 0 0 0
183 2 9.820301 9.320298 9.864327 0 0 0
184 2 8.199216 10.327524 7.357285 0 0 0
185 2 9.739760 9.361923 15.139224 0 0 0
186 2 8.003449 10.355874 12.396880 0 0 0
187 2 12.970108 7.585862 1.828230 0 0 0
188 2 0.000000 7.557400 7.323535 0 0 0
189 2 12.907624 7.611738 12.673697 0 0 0
190 2 11.417613 10.223122 2.103938 0 0 0
191 2 11.472823 10.404025 7.289151 0 0 0
192 2 11.342788 10.222785 12.563572 0 0 0
