LAMMPS DATA file

64 atoms

1 atom types

0.000000 10.862000 xlo xhi
0.000000 10.862000 ylo yhi
0.000000 10.862000 zlo zhi

Masses

1 28.0855

Atoms

1 1 6.830980 1.340070 1.344770
2 1 9.449130 4.112190 1.397050
3 1 9.562450 1.380910 4.042660
4 1 1.332860 1.345490 1.325430
5 1 4.019790 3.999180 1.333870
6 1 6.776700 6.710040 1.327450
7 1 9.505300 9.473010 1.314840
8 1 4.070280 1.383690 4.046110
9 1 6.779460 4.048090 4.176620
10 1 9.498830 6.782740 4.077960
11 1 6.764950 1.354260 6.822550
12 1 9.544210 4.095320 6.797980
13 1 9.452890 1.389880 9.578220
14 1 1.353230 6.761100 1.371240
15 1 4.122220 9.497120 1.365060
16 1 1.368890 4.084930 4.054940
17 1 4.055980 6.787810 4.069420
18 1 6.783330 9.483520 4.045940
19 1 1.446790 1.358990 6.749060
20 1 4.145780 4.058060 6.782020
21 1 6.824170 6.776550 6.815850
22 1 9.505750 9.458640 6.802760
23 1 4.096290 1.414290 9.510110
24 1 6.776880 4.099810 9.457730
25 1 9.481500 6.774370 9.552050
26 1 1.345280 9.494450 4.068010
27 1 1.346120 6.835780 6.815080
28 1 4.028440 9.579450 6.772110
29 1 1.299580 4.115130 9.470930
30 1 4.057500 6.788610 9.487590
31 1 6.802870 9.491000 9.490420
32 1 1.369980 9.493480 9.490180
33 1 5.457170 0.015999 0.035559
34 1 8.144110 2.770150 0.024844
35 1 8.215790 0.000556 2.678570
36 1 -0.010128 -0.013700 -0.029583
37 1 2.697300 2.719990 -0.052625
38 1 5.393500 5.379500 -0.009022
39 1 8.090320 8.113330 -0.040165
40 1 2.715020 0.009331 2.718830
41 1 5.468600 2.700330 2.692960
42 1 8.107020 5.429180 2.787110
43 1 5.404010 -0.002433 5.372560
44 1 8.179590 2.653410 5.472590
45 1 8.186730 0.012525 8.142690
46 1 -0.038792 5.474080 0.053670
47 1 2.717490 8.154430 0.083550
48 1 0.033024 2.728460 2.703810
49 1 2.714810 5.405020 2.717710
50 1 5.398310 8.087310 2.724740
51 1 0.000763 -0.024633 5.442660
52 1 2.747590 2.750750 5.467120
53 1 5.417030 5.454300 5.442440
54 1 8.088710 8.194100 5.418380
55 1 2.712790 0.009178 8.209350
56 1 5.446300 2.697140 8.172400
57 1 8.175370 5.417480 8.136720
58 1 -0.019097 8.147910 2.697170
59 1 0.074769 5.469640 5.402510
60 1 2.681740 8.172440 5.381340
61 1 0.042119 2.689800 8.099570
62 1 2.697590 5.423400 8.139360
63 1 5.426240 8.194560 8.120740
64 1 -0.028157 8.134530 8.172410
