LAMMPS DATA file

64 atoms

1 atom types

0.000000 10.862000 xlo xhi
0.000000 10.862000 ylo yhi
0.000000 10.862000 zlo zhi

Masses

1 28.0855

Atoms

1 1 6.775420 1.367460 1.350730
2 1 9.582510 4.035450 1.325210
3 1 9.457310 1.346360 4.080950
4 1 1.357120 1.376100 1.397510
5 1 4.102470 4.137240 1.381450
6 1 6.819020 6.888880 1.373670
7 1 9.500080 9.547680 1.393620
8 1 4.040620 1.344220 4.131340
9 1 6.782690 4.110390 4.007600
10 1 9.495040 6.816540 4.076230
11 1 6.778230 1.370750 6.772810
12 1 9.438610 4.062370 6.764630
13 1 9.515750 1.329220 9.484680
14 1 1.386050 6.793690 1.337120
15 1 4.064730 9.508190 1.367870
16 1 1.341130 4.047390 4.074310
17 1 4.082310 6.820610 4.079480
18 1 6.789770 9.526390 4.089030
19 1 1.322530 1.311400 6.802020
20 1 4.032210 4.035150 6.795640
21 1 6.784600 6.773910 6.746870
22 1 9.523750 9.501990 6.779820
23 1 4.048150 1.321550 9.489060
24 1 6.807330 4.033490 9.492010
25 1 9.522310 6.814860 9.452800
26 1 1.370580 9.518020 4.094590
27 1 1.352220 6.762230 6.760050
28 1 4.075730 9.456240 6.801380
29 1 1.422360 4.045940 9.554200
30 1 4.081960 6.803530 9.536030
31 1 6.781260 9.513740 9.542250
32 1 1.350750 9.501830 9.491920
33 1 5.405570 0.013884 -0.014782
34 1 8.137520 2.682550 -0.023097
35 1 8.086910 0.022589 2.758530
36 1 0.007822 -0.003067 0.024731
37 1 2.765720 2.696010 0.023822
38 1 5.501990 5.462960 0.001894
39 1 8.207010 8.141920 0.006332
40 1 2.710490 -0.017630 2.697450
41 1 5.400230 2.749540 2.707910
42 1 8.180750 5.429410 2.634300
43 1 5.469850 -0.016534 5.487010
44 1 8.103750 2.734480 5.386090
45 1 8.114530 -0.026489 8.144110
46 1 0.030209 5.416880 -0.043107
47 1 2.718410 8.150420 -0.053773
48 1 -0.054252 2.707580 2.750130
49 1 2.716150 5.467950 2.733450
50 1 5.446190 8.207300 2.738290
51 1 -0.022561 0.023563 5.439030
52 1 2.643770 2.685450 5.424740
53 1 5.431880 5.418180 5.430140
54 1 8.184360 8.136020 5.459230
55 1 2.703060 -0.002957 8.113940
56 1 5.391490 2.734050 8.133700
57 1 8.111600 5.453280 8.165860
58 1 0.042888 8.138170 2.717190
59 1 -0.031326 5.387010 5.448950
60 1 2.761680 8.094090 5.438540
61 1 -0.036180 2.746830 8.163000
62 1 2.714430 5.406470 8.137440
63 1 5.480600 8.107330 8.154670
64 1 0.026857 8.165960 8.123430
