LAMMPS DATA file

192 atoms
0 bonds
0 angles
0 dihedrals
0 impropers

2 atom types
0 bond types
0 angle types

0.0 12.990503 xlo xhi
0.0 11.250148 ylo yhi
0.0 15.845291 zlo zhi

Masses

1 69.723
2 14.0067

Atoms

1 1 1.533919 0.992511 2.566620 0 0 0
2 1 1.579385 0.825311 7.937381 0 0 0
3 1 1.609264 0.861311 13.263459 0 0 0
4 1 0.011441 3.694886 2.601480 0 0 0
5 1 12.924154 3.768687 7.775443 0 0 0
6 1 0.026579 3.646511 13.313847 0 0 0
7 1 4.830649 0.850264 2.665019 0 0 0
8 1 3.281401 1.938288 5.351272 0 0 0
9 1 4.947173 0.970967 8.047665 0 0 0
10 1 3.275166 1.928275 10.625693 0 0 0
11 1 4.920803 1.031987 13.347756 0 0 0
12 1 3.203198 1.783824 0.091903 0 0 0
13 1 3.295041 3.676548 2.629368 0 0 0
14 1 1.737999 4.606148 5.326870 0 0 0
15 1 3.168124 3.778475 7.955445 0 0 0
16 1 1.608484 4.723375 10.541238 0 0 0
17 1 3.338949 3.796700 13.176310 0 0 0
18 1 1.654990 4.719325 0.117255 0 0 0
19 1 1.752029 6.613962 2.637290 0 0 0
20 1 1.506639 6.474460 8.030710 0 0 0
21 1 1.731894 6.601249 13.186926 0 0 0
22 1 0.119875 9.280585 2.599261 0 0 0
23 1 12.864869 9.395786 7.938807 0 0 0
24 1 12.863787 9.395336 13.154602 0 0 0
25 1 7.995785 1.045195 2.518767 0 0 0
26 1 6.508372 1.956851 5.334159 0 0 0
27 1 7.998253 0.924053 7.898085 0 0 0
28 1 6.564361 1.987451 10.481184 0 0 0
29 1 8.219351 0.836201 13.145570 0 0 0
30 1 6.554878 1.874725 0.009507 0 0 0
31 1 6.423674 3.665186 2.630635 0 0 0
32 1 4.968608 4.719437 5.259844 0 0 0
33 1 6.400941 3.669348 8.070165 0 0 0
34 1 4.994069 4.671512 10.639162 0 0 0
35 1 6.510451 3.807838 13.349816 0 0 0
36 1 4.752446 4.654074 15.832456 0 0 0
37 1 4.787000 6.530149 2.758507 0 0 0
38 1 3.135648 7.408448 5.182995 0 0 0
39 1 4.901317 6.511586 7.995692 0 0 0
40 1 3.197093 7.559875 10.479758 0 0 0
41 1 4.915866 6.479748 13.339199 0 0 0
42 1 3.233206 7.468186 15.735166 0 0 0
43 1 3.247366 9.364398 2.497852 0 0 0
44 1 1.724619 10.404362 5.365849 0 0 0
45 1 3.240351 9.441799 8.036256 0 0 0
46 1 1.668500 10.215922 10.439036 0 0 0
47 1 3.228270 9.438762 13.227173 0 0 0
48 1 1.616538 10.207709 15.738493 0 0 0
49 1 11.478928 0.957928 2.637449 0 0 0
50 1 9.669741 1.976764 5.232590 0 0 0
51 1 11.355908 1.011940 8.009319 0 0 0
52 1 9.727549 1.902963 10.702385 0 0 0
53 1 11.409169 0.884970 13.269639 0 0 0
54 1 9.758726 1.981489 15.776680 0 0 0
55 1 9.742098 3.701411 2.500387 0 0 0
56 1 8.018128 4.591973 5.433509 0 0 0
57 1 9.768729 3.815038 8.031661 0 0 0
58 1 8.204022 4.785926 10.410990 0 0 0
59 1 9.649216 3.800750 13.316858 0 0 0
60 1 8.086328 4.623698 0.019014 0 0 0
61 1 7.995785 6.459835 2.772767 0 0 0
62 1 6.469660 7.564262 5.194720 0 0 0
63 1 8.147254 6.651088 7.958139 0 0 0
64 1 6.605411 7.611625 10.447117 0 0 0
65 1 7.995655 6.655138 13.087418 0 0 0
66 1 6.388729 7.548624 15.736750 0 0 0
67 1 6.406786 9.370361 2.777679 0 0 0
68 1 4.934053 10.351374 5.140054 0 0 0
69 1 6.444848 9.473412 8.030235 0 0 0
70 1 4.973024 10.332586 10.451078 0 0 0
71 1 6.411073 9.430774 13.339992 0 0 0
72 1 4.912489 10.322461 0.025352 0 0 0
73 1 12.921524 1.946951 5.367751 0 0 0
74 1 0.023383 1.860662 10.573879 0 0 0
75 1 12.952311 1.986551 15.796962 0 0 0
76 1 11.487762 4.580610 5.364265 0 0 0
77 1 11.351102 4.716962 10.499090 0 0 0
78 1 11.476330 4.625273 15.799973 0 0 0
79 1 11.316807 6.458598 2.668664 0 0 0
80 1 9.830174 7.519937 5.233066 0 0 0
81 1 11.273159 6.476260 8.069690 0 0 0
82 1 9.753660 7.407098 10.480709 0 0 0
83 1 11.291345 6.520923 13.326840 0 0 0
84 1 9.748204 7.424085 15.726926 0 0 0
85 1 9.629600 9.454962 2.785761 0 0 0
86 1 8.230523 10.292311 5.403561 0 0 0
87 1 9.738850 9.368336 7.811887 0 0 0
88 1 8.010724 10.342599 10.498139 0 0 0
89 1 9.734174 9.310060 13.040991 0 0 0
90 1 8.196358 10.282973 15.686204 0 0 0
91 1 0.055859 7.436798 5.336060 0 0 0
92 1 12.924511 7.447486 10.441413 0 0 0
93 1 12.949973 7.557287 0.117255 0 0 0
94 1 11.421380 10.255635 5.260953 0 0 0
95 1 11.478668 10.338661 10.481501 0 0 0
96 1 11.400725 10.356661 15.809322 0 0 0
97 2 1.544181 0.894106 4.688146 0 0 0
98 2 1.657718 0.881224 9.764026 0 0 0
99 2 1.631997 0.864653 15.197535 0 0 0
100 2 0.096465 3.775662 4.554570 0 0 0
101 2 0.092114 3.672948 9.832478 0 0 0
102 2 0.044320 3.688361 15.293874 0 0 0
103 2 4.825712 0.934899 4.710646 0 0 0
104 2 3.309331 1.905663 1.906664 0 0 0
105 2 4.932364 0.901396 9.846264 0 0 0
106 2 3.150717 1.764811 7.402603 0 0 0
107 2 4.977961 0.910992 15.254420 0 0 0
108 2 3.292443 1.791249 12.454874 0 0 0
109 2 3.352329 3.838213 4.588321 0 0 0
110 2 1.558860 4.710662 2.025979 0 0 0
111 2 3.122787 3.822013 9.914398 0 0 0
112 2 1.730205 4.601761 7.409258 0 0 0
113 2 3.358565 3.658886 15.163626 0 0 0
114 2 1.577827 4.765450 12.691602 0 0 0
115 2 1.683309 6.603950 4.671825 0 0 0
116 2 1.576008 6.614862 9.800312 0 0 0
117 2 1.691364 6.470748 15.338717 0 0 0
118 2 0.028313 9.463962 4.530169 0 0 0
119 2 0.126804 9.316923 9.821070 0 0 0
120 2 12.965043 9.438312 15.297994 0 0 0
121 2 8.095552 0.915548 4.713182 0 0 0
122 2 6.430039 1.957301 2.043884 0 0 0
123 2 8.243124 0.866756 9.818851 0 0 0
124 2 6.446667 1.931763 7.225928 0 0 0
125 2 8.146215 0.911285 15.206567 0 0 0
126 2 6.465503 1.912300 12.395929 0 0 0
127 2 6.576572 3.716261 4.695276 0 0 0
128 2 4.990692 4.689287 2.038814 0 0 0
129 2 6.476935 3.828650 9.957656 0 0 0
130 2 4.872608 4.658011 7.326545 0 0 0
131 2 6.391068 3.648311 15.307660 0 0 0
132 2 4.910930 4.712462 12.524910 0 0 0
133 2 4.872348 6.487060 4.498161 0 0 0
134 2 3.295821 7.419698 1.995239 0 0 0
135 2 4.742443 6.545674 9.821386 0 0 0
136 2 3.289195 7.500811 7.299608 0 0 0
137 2 4.793496 6.480985 15.039716 0 0 0
138 2 3.361812 7.544124 12.566900 0 0 0
139 2 3.194495 9.272260 4.739168 0 0 0
140 2 1.648885 10.204334 2.123427 0 0 0
141 2 3.120319 9.406811 10.000280 0 0 0
142 2 1.630698 10.265648 7.308640 0 0 0
143 2 3.228270 9.385549 15.092639 0 0 0
144 2 1.687336 10.247985 12.423025 0 0 0
145 2 11.469705 1.010038 4.748358 0 0 0
146 2 9.635836 1.920063 1.881628 0 0 0
147 2 11.453207 0.988821 9.996160 0 0 0
148 2 9.811337 1.775386 7.302778 0 0 0
149 2 11.470225 0.941142 15.192465 0 0 0
150 2 9.679354 1.981151 12.575456 0 0 0
151 2 9.864598 3.646848 4.528426 0 0 0
152 2 8.124261 4.719212 1.935661 0 0 0
153 2 9.781459 3.717499 10.019769 0 0 0
154 2 8.130236 4.726525 7.190751 0 0 0
155 2 9.644539 3.646736 15.313523 0 0 0
156 2 8.184796 4.755550 12.531090 0 0 0
157 2 8.008645 6.484810 4.546965 0 0 0
158 2 6.385872 7.579562 1.877508 0 0 0
159 2 8.149332 6.568962 9.810929 0 0 0
160 2 6.562672 7.526012 7.157635 0 0 0
161 2 8.107243 6.603612 15.121161 0 0 0
162 2 6.527728 7.599475 12.570861 0 0 0
163 2 6.545395 9.482750 4.753587 0 0 0
164 2 4.910021 10.421350 1.879568 0 0 0
165 2 6.497850 9.403774 10.003924 0 0 0
166 2 4.850134 10.212435 7.273939 0 0 0
167 2 6.400291 9.345161 15.252835 0 0 0
168 2 4.775179 10.376912 12.407179 0 0 0
169 2 0.081840 1.957638 1.890026 0 0 0
170 2 0.027280 1.986776 7.122933 0 0 0
171 2 12.896712 1.812736 12.575932 0 0 0
172 2 11.411118 4.737775 1.987475 0 0 0
173 2 11.404233 4.583198 7.170945 0 0 0
174 2 11.431513 4.644399 12.628538 0 0 0
175 2 11.458143 6.472435 4.658040 0 0 0
176 2 9.800166 7.515549 1.902227 0 0 0
177 2 11.473342 6.664025 9.913923 0 0 0
178 2 9.796658 7.567300 7.172688 0 0 0
179 2 11.264585 6.589212 15.039082 0 0 0
180 2 9.622715 7.413510 12.650722 0 0 0
181 2 9.710921 9.314223 4.585310 0 0 0
182 2 8.034496 10.374437 1.932333 0 0 0
183 2 9.695072 9.425599 9.935789 0 0 0
184 2 8.191162 10.281060 7.167934 0 0 0
185 2 9.761973 9.371373 15.165686 0 0 0
186 2 8.071649 10.418987 12.473096 0 0 0
187 2 0.016888 7.466836 1.926629 0 0 0
188 2 12.863066 7.537937 7.390085 0 0 0
189 2 12.970108 7.580800 12.691602 0 0 0
190 2 11.334474 10.245847 1.884480 0 0 0
191 2 11.316417 10.391424 7.275999 0 0 0
192 2 11.452038 10.224135 12.586865 0 0 0
